<?xml version="1.0"?>
<VTKFile type="StructuredGrid">
<StructuredGrid WholeExtent="     0   100     0   100     0     0">
<Piece Extent="     0   100     0   100     0     0">
<Points>
<DataArray type="Float32" NumberOfComponents="3"/>
0.000000000E+00 0.000000000E+00 0.000000000E+00 0.199999996E-01 0.000000000E+00 0.000000000E+00 0.399999991E-01 0.000000000E+00 0.000000000E+00 0.599999987E-01 0.000000000E+00 0.000000000E+00 0.799999982E-01 0.000000000E+00 0.000000000E+00 0.100000001E+00 0.000000000E+00 0.000000000E+00 0.119999997E+00 0.000000000E+00 0.000000000E+00 0.140000001E+00 0.000000000E+00 0.000000000E+00 0.159999996E+00 0.000000000E+00 0.000000000E+00 0.180000007E+00 0.000000000E+00 0.000000000E+00 0.200000003E+00 0.000000000E+00 0.000000000E+00 0.219999999E+00 0.000000000E+00 0.000000000E+00 0.239999995E+00 0.000000000E+00 0.000000000E+00 0.259999990E+00 0.000000000E+00 0.000000000E+00 0.280000001E+00 0.000000000E+00 0.000000000E+00 0.300000012E+00 0.000000000E+00 0.000000000E+00 0.319999993E+00 0.000000000E+00 0.000000000E+00 0.340000004E+00 0.000000000E+00 0.000000000E+00 0.360000014E+00 0.000000000E+00 0.000000000E+00 0.379999995E+00 0.000000000E+00 0.000000000E+00 0.400000006E+00 0.000000000E+00 0.000000000E+00 0.419999987E+00 0.000000000E+00 0.000000000E+00 0.439999998E+00 0.000000000E+00 0.000000000E+00 0.460000008E+00 0.000000000E+00 0.000000000E+00 0.479999989E+00 0.000000000E+00 0.000000000E+00 0.500000000E+00 0.000000000E+00 0.000000000E+00 0.519999981E+00 0.000000000E+00 0.000000000E+00 0.540000021E+00 0.000000000E+00 0.000000000E+00 0.560000002E+00 0.000000000E+00 0.000000000E+00 0.579999983E+00 0.000000000E+00 0.000000000E+00 0.600000024E+00 0.000000000E+00 0.000000000E+00 0.620000005E+00 0.000000000E+00 0.000000000E+00 0.639999986E+00 0.000000000E+00 0.000000000E+00 0.660000026E+00 0.000000000E+00 0.000000000E+00 0.680000007E+00 0.000000000E+00 0.000000000E+00 0.699999988E+00 0.000000000E+00 0.000000000E+00 0.720000029E+00 0.000000000E+00 0.000000000E+00 0.740000010E+00 0.000000000E+00 0.000000000E+00 0.759999990E+00 0.000000000E+00 0.000000000E+00 0.779999971E+00 0.000000000E+00 0.000000000E+00 0.800000012E+00 0.000000000E+00 0.000000000E+00 0.819999993E+00 0.000000000E+00 0.000000000E+00 0.839999974E+00 0.000000000E+00 0.000000000E+00 0.860000014E+00 0.000000000E+00 0.000000000E+00 0.879999995E+00 0.000000000E+00 0.000000000E+00 0.899999976E+00 0.000000000E+00 0.000000000E+00 0.920000017E+00 0.000000000E+00 0.000000000E+00 0.939999998E+00 0.000000000E+00 0.000000000E+00 0.959999979E+00 0.000000000E+00 0.000000000E+00 0.980000019E+00 0.000000000E+00 0.000000000E+00 0.100000000E+01 0.000000000E+00 0.000000000E+00 0.101999998E+01 0.000000000E+00 0.000000000E+00 0.103999996E+01 0.000000000E+00 0.000000000E+00 0.105999994E+01 0.000000000E+00 0.000000000E+00 0.108000004E+01 0.000000000E+00 0.000000000E+00 0.110000002E+01 0.000000000E+00 0.000000000E+00 0.112000000E+01 0.000000000E+00 0.000000000E+00 0.113999999E+01 0.000000000E+00 0.000000000E+00 0.115999997E+01 0.000000000E+00 0.000000000E+00 0.117999995E+01 0.000000000E+00 0.000000000E+00 0.120000005E+01 0.000000000E+00 0.000000000E+00 0.122000003E+01 0.000000000E+00 0.000000000E+00 0.124000001E+01 0.000000000E+00 0.000000000E+00 0.125999999E+01 0.000000000E+00 0.000000000E+00 0.127999997E+01 0.000000000E+00 0.000000000E+00 0.129999995E+01 0.000000000E+00 0.000000000E+00 0.132000005E+01 0.000000000E+00 0.000000000E+00 0.134000003E+01 0.000000000E+00 0.000000000E+00 0.136000001E+01 0.000000000E+00 0.000000000E+00 0.138000000E+01 0.000000000E+00 0.000000000E+00 0.139999998E+01 0.000000000E+00 0.000000000E+00 0.141999996E+01 0.000000000E+00 0.000000000E+00 0.144000006E+01 0.000000000E+00 0.000000000E+00 0.146000004E+01 0.000000000E+00 0.000000000E+00 0.148000002E+01 0.000000000E+00 0.000000000E+00 0.150000000E+01 0.000000000E+00 0.000000000E+00 0.151999998E+01 0.000000000E+00 0.000000000E+00 0.153999996E+01 0.000000000E+00 0.000000000E+00 0.155999994E+01 0.000000000E+00 0.000000000E+00 0.158000004E+01 0.000000000E+00 0.000000000E+00 0.160000002E+01 0.000000000E+00 0.000000000E+00 0.162000000E+01 0.000000000E+00 0.000000000E+00 0.163999999E+01 0.000000000E+00 0.000000000E+00 0.165999997E+01 0.000000000E+00 0.000000000E+00 0.167999995E+01 0.000000000E+00 0.000000000E+00 0.170000005E+01 0.000000000E+00 0.000000000E+00 0.172000003E+01 0.000000000E+00 0.000000000E+00 0.174000001E+01 0.000000000E+00 0.000000000E+00 0.175999999E+01 0.000000000E+00 0.000000000E+00 0.177999997E+01 0.000000000E+00 0.000000000E+00 0.179999995E+01 0.000000000E+00 0.000000000E+00 0.182000005E+01 0.000000000E+00 0.000000000E+00 0.184000003E+01 0.000000000E+00 0.000000000E+00 0.186000001E+01 0.000000000E+00 0.000000000E+00 0.188000000E+01 0.000000000E+00 0.000000000E+00 0.189999998E+01 0.000000000E+00 0.000000000E+00 0.191999996E+01 0.000000000E+00 0.000000000E+00 0.194000006E+01 0.000000000E+00 0.000000000E+00 0.196000004E+01 0.000000000E+00 0.000000000E+00 0.198000002E+01 0.000000000E+00 0.000000000E+00 0.200000000E+01 0.000000000E+00 0.000000000E+00
0.000000000E+00 0.999999978E-02 0.000000000E+00 0.199999996E-01 0.999999978E-02 0.000000000E+00 0.399999991E-01 0.999999978E-02 0.000000000E+00 0.599999987E-01 0.999999978E-02 0.000000000E+00 0.799999982E-01 0.999999978E-02 0.000000000E+00 0.100000001E+00 0.999999978E-02 0.000000000E+00 0.119999997E+00 0.999999978E-02 0.000000000E+00 0.140000001E+00 0.999999978E-02 0.000000000E+00 0.159999996E+00 0.999999978E-02 0.000000000E+00 0.180000007E+00 0.999999978E-02 0.000000000E+00 0.200000003E+00 0.999999978E-02 0.000000000E+00 0.219999999E+00 0.999999978E-02 0.000000000E+00 0.239999995E+00 0.999999978E-02 0.000000000E+00 0.259999990E+00 0.999999978E-02 0.000000000E+00 0.280000001E+00 0.999999978E-02 0.000000000E+00 0.300000012E+00 0.999999978E-02 0.000000000E+00 0.319999993E+00 0.999999978E-02 0.000000000E+00 0.340000004E+00 0.999999978E-02 0.000000000E+00 0.360000014E+00 0.999999978E-02 0.000000000E+00 0.379999995E+00 0.999999978E-02 0.000000000E+00 0.400000006E+00 0.999999978E-02 0.000000000E+00 0.419999987E+00 0.999999978E-02 0.000000000E+00 0.439999998E+00 0.999999978E-02 0.000000000E+00 0.460000008E+00 0.999999978E-02 0.000000000E+00 0.479999989E+00 0.999999978E-02 0.000000000E+00 0.500000000E+00 0.999999978E-02 0.000000000E+00 0.519999981E+00 0.999999978E-02 0.000000000E+00 0.540000021E+00 0.999999978E-02 0.000000000E+00 0.560000002E+00 0.999999978E-02 0.000000000E+00 0.579999983E+00 0.999999978E-02 0.000000000E+00 0.600000024E+00 0.999999978E-02 0.000000000E+00 0.620000005E+00 0.999999978E-02 0.000000000E+00 0.639999986E+00 0.999999978E-02 0.000000000E+00 0.660000026E+00 0.999999978E-02 0.000000000E+00 0.680000007E+00 0.999999978E-02 0.000000000E+00 0.699999988E+00 0.999999978E-02 0.000000000E+00 0.720000029E+00 0.999999978E-02 0.000000000E+00 0.740000010E+00 0.999999978E-02 0.000000000E+00 0.759999990E+00 0.999999978E-02 0.000000000E+00 0.779999971E+00 0.999999978E-02 0.000000000E+00 0.800000012E+00 0.999999978E-02 0.000000000E+00 0.819999993E+00 0.999999978E-02 0.000000000E+00 0.839999974E+00 0.999999978E-02 0.000000000E+00 0.860000014E+00 0.999999978E-02 0.000000000E+00 0.879999995E+00 0.999999978E-02 0.000000000E+00 0.899999976E+00 0.999999978E-02 0.000000000E+00 0.920000017E+00 0.999999978E-02 0.000000000E+00 0.939999998E+00 0.999999978E-02 0.000000000E+00 0.959999979E+00 0.999999978E-02 0.000000000E+00 0.980000019E+00 0.999999978E-02 0.000000000E+00 0.100000000E+01 0.999999978E-02 0.000000000E+00 0.101999998E+01 0.999999978E-02 0.000000000E+00 0.103999996E+01 0.999999978E-02 0.000000000E+00 0.105999994E+01 0.999999978E-02 0.000000000E+00 0.108000004E+01 0.999999978E-02 0.000000000E+00 0.110000002E+01 0.999999978E-02 0.000000000E+00 0.112000000E+01 0.999999978E-02 0.000000000E+00 0.113999999E+01 0.999999978E-02 0.000000000E+00 0.115999997E+01 0.999999978E-02 0.000000000E+00 0.117999995E+01 0.999999978E-02 0.000000000E+00 0.120000005E+01 0.999999978E-02 0.000000000E+00 0.122000003E+01 0.999999978E-02 0.000000000E+00 0.124000001E+01 0.999999978E-02 0.000000000E+00 0.125999999E+01 0.999999978E-02 0.000000000E+00 0.127999997E+01 0.999999978E-02 0.000000000E+00 0.129999995E+01 0.999999978E-02 0.000000000E+00 0.132000005E+01 0.999999978E-02 0.000000000E+00 0.134000003E+01 0.999999978E-02 0.000000000E+00 0.136000001E+01 0.999999978E-02 0.000000000E+00 0.138000000E+01 0.999999978E-02 0.000000000E+00 0.139999998E+01 0.999999978E-02 0.000000000E+00 0.141999996E+01 0.999999978E-02 0.000000000E+00 0.144000006E+01 0.999999978E-02 0.000000000E+00 0.146000004E+01 0.999999978E-02 0.000000000E+00 0.148000002E+01 0.999999978E-02 0.000000000E+00 0.150000000E+01 0.999999978E-02 0.000000000E+00 0.151999998E+01 0.999999978E-02 0.000000000E+00 0.153999996E+01 0.999999978E-02 0.000000000E+00 0.155999994E+01 0.999999978E-02 0.000000000E+00 0.158000004E+01 0.999999978E-02 0.000000000E+00 0.160000002E+01 0.999999978E-02 0.000000000E+00 0.162000000E+01 0.999999978E-02 0.000000000E+00 0.163999999E+01 0.999999978E-02 0.000000000E+00 0.165999997E+01 0.999999978E-02 0.000000000E+00 0.167999995E+01 0.999999978E-02 0.000000000E+00 0.170000005E+01 0.999999978E-02 0.000000000E+00 0.172000003E+01 0.999999978E-02 0.000000000E+00 0.174000001E+01 0.999999978E-02 0.000000000E+00 0.175999999E+01 0.999999978E-02 0.000000000E+00 0.177999997E+01 0.999999978E-02 0.000000000E+00 0.179999995E+01 0.999999978E-02 0.000000000E+00 0.182000005E+01 0.999999978E-02 0.000000000E+00 0.184000003E+01 0.999999978E-02 0.000000000E+00 0.186000001E+01 0.999999978E-02 0.000000000E+00 0.188000000E+01 0.999999978E-02 0.000000000E+00 0.189999998E+01 0.999999978E-02 0.000000000E+00 0.191999996E+01 0.999999978E-02 0.000000000E+00 0.194000006E+01 0.999999978E-02 0.000000000E+00 0.196000004E+01 0.999999978E-02 0.000000000E+00 0.198000002E+01 0.999999978E-02 0.000000000E+00 0.200000000E+01 0.999999978E-02 0.000000000E+00
[...]
<CellData Scalars="Temperature, U, V">
<DataArray type="Float32" Name="Temp, K"/>
0.319453606E-15 0.406310863E-14 0.285879278E-13 0.130185467E-12 0.424819386E-12 0.106664482E-11 0.216762220E-11 0.369682280E-11 0.543143915E-11 0.700682611E-11 0.804879427E-11 0.831831045E-11 0.779387405E-11 0.665770564E-11 0.520615885E-11 0.373749642E-11 0.246806004E-11 0.150092222E-11 0.841087183E-12 0.434351421E-12 0.206640328E-12 0.905033833E-13 0.364550919E-13 0.134878342E-13 0.457670451E-14 0.151129514E-14 0.484285952E-15 0.150142718E-15 0.448911547E-16 0.128994755E-16 0.354909865E-17 0.931192991E-18 0.231961296E-18 0.545926473E-19 0.120742682E-19 0.249456529E-20 0.478206875E-21 0.844136326E-22 0.136015823E-22 0.198032190E-23 0.257420351E-24 0.294464889E-25 0.409006122E-26 0.282634722E-23 0.107571840E-17 0.499892693E-15 0.106100119E-12 0.122218000E-10 0.745708495E-09 0.105673614E-08 0.234675196E-10 0.270723873E-12 0.178862061E-14 0.661701228E-17 0.110503850E-19 0.303144239E-25 0.452104813E-26 0.405057981E-25 0.320035002E-24 0.225706101E-23 0.143806629E-22 0.836237809E-22 0.447719685E-21 0.222399180E-20 0.103191880E-19 0.449942600E-19 0.185360319E-18 0.725018430E-18 0.270451520E-17 0.966075239E-17 0.331701742E-16 0.109853596E-15 0.352063977E-15 0.109519804E-14 0.331645883E-14 0.980281902E-14 0.266379834E-13 0.666290956E-13 0.153553643E-12 0.326274218E-12 0.639410942E-12 0.115566519E-11 0.192539994E-11 0.295385483E-11 0.416566781E-11 0.538626045E-11 0.636218552E-11 0.683038955E-11 0.661926807E-11 0.573638402E-11 0.438942502E-11 0.291453515E-11 0.163944379E-11 0.755434235E-12 0.271878467E-12 0.713661308E-13 0.123546515E-13 0.120228682E-14 0.472735540E-16 0.107136601E-21
0.622180047E-14 0.744691038E-13 0.499049532E-12 0.219013024E-11 0.696021669E-11 0.171720624E-10 0.345448323E-10 0.586804216E-10 0.863159336E-10 0.111978461E-09 0.129855737E-09 0.135947434E-09 0.129428634E-09 0.112655704E-09 0.899918889E-10 0.661516189E-10 0.448258236E-10 0.280294919E-10 0.161806176E-10 0.862289320E-11 0.424033334E-11 0.192264585E-11 0.802943757E-12 0.308443917E-12 0.108814115E-12 0.373116827E-13 0.124019794E-13 0.398456453E-14 0.123361698E-14 0.366817332E-15 0.104382755E-15 0.283149416E-16 0.729031332E-17 0.177323266E-17 0.405317595E-18 0.865546154E-19 0.171547501E-19 0.313199721E-20 0.522226222E-21 0.787297257E-22 0.106048417E-22 0.125814134E-23 0.184295913E-23 0.154362293E-20 0.278860948E-17 0.115524441E-14 0.236271397E-12 0.267976700E-10 0.162624392E-08 0.230034281E-08 0.510303813E-10 0.592362693E-12 0.397783232E-14 0.153024674E-16 0.290183942E-19 0.139014978E-22 0.212554331E-24 0.172725789E-23 0.131671322E-22 0.896733721E-22 0.552137152E-21 0.310466390E-20 0.160813798E-19 0.773115183E-19 0.347261666E-18 0.146595244E-17 0.584690383E-17 0.221382566E-16 0.799190144E-16 0.276160455E-15 0.916754770E-15 0.293345488E-14 0.907591483E-14 0.272298917E-13 0.794379685E-13 0.225918988E-12 0.591454132E-12 0.142722227E-11 0.317768533E-11 0.653284284E-11 0.124065255E-10 0.217659848E-10 0.352629974E-10 0.527077340E-10 0.725705468E-10 0.918201140E-10 0.106392457E-09 0.112356222E-09 0.107433777E-09 0.921835941E-10 0.701187927E-10 0.464968897E-10 0.262650908E-10 0.122352996E-10 0.448829906E-11 0.121276340E-11 0.218587437E-12 0.224151616E-13 0.939569497E-15 0.217512070E-20
0.800603344E-13 0.905437617E-12 0.580061823E-11 0.246070941E-10 0.763302060E-10 0.185321314E-09 0.369357184E-09 0.625109187E-09 0.920483190E-09 0.120033183E-08 0.140421541E-08 0.148780133E-08 0.143769463E-08 0.127350963E-08 0.103781994E-08 0.780018494E-09 0.541557132E-09 0.347637280E-09 0.206390433E-09 0.113310576E-09 0.574959108E-10 0.269410605E-10 0.116440902E-10 0.463554412E-11 0.169703151E-11 0.603071629E-12 0.207510617E-12 0.689486242E-13 0.220573105E-13 0.677239010E-14 0.198880477E-14 0.556492970E-15 0.147753304E-15 0.370533008E-16 0.873183766E-17 0.192257743E-17 0.392962335E-18 0.740123795E-19 0.127366726E-19 0.198290056E-20 0.276015918E-21 0.338676288E-22 0.926880640E-23 0.493628755E-20 0.525339677E-17 0.199236718E-14 0.394376345E-12 0.440837158E-10 0.266071565E-08 0.375652798E-08 0.832833663E-10 0.972722879E-12 0.663203081E-14 0.264024074E-16 0.551167309E-19 0.448530313E-22 0.559080239E-23 0.464224984E-22 0.342392972E-21 0.225792883E-20 0.134711815E-19 0.734397573E-19 0.368969341E-18 0.172107355E-17 0.750210878E-17 0.307358544E-16 0.118965777E-15 0.437044331E-15 0.153030065E-14 0.512664743E-14 0.164896834E-13 0.510867221E-13 0.152900614E-12 0.443314981E-12 0.124834247E-11 0.342231712E-11 0.864777434E-11 0.201680669E-10 0.434581468E-10 0.865920530E-10 0.159626257E-09 0.272279449E-09 0.429625252E-09 0.626593388E-09 0.843496051E-09 0.104572107E-08 0.119007493E-08 0.123759425E-08 0.116867860E-08 0.993549576E-09 0.751546048E-09 0.497724528E-09 0.282219165E-09 0.132775388E-09 0.495590791E-10 0.137498086E-10 0.257175574E-11 0.276833921E-12 0.123197393E-13 0.290364597E-19
0.749943293E-12 0.803470832E-11 0.493244161E-10 0.202646788E-09 0.614411078E-09 0.146925849E-08 0.290253488E-08 0.489483787E-08 0.721441262E-08 0.945330303E-08 0.111509548E-07 0.119499539E-07 0.117126442E-07 0.105506626E-07 0.876443451E-08 0.672961908E-08 0.478305351E-08 0.314915427E-08 0.192105976E-08 0.108550979E-08 0.567802971E-09 0.274675532E-09 0.122735266E-09 0.505834923E-10 0.191956971E-10 0.706165465E-11 0.251237789E-11 0.862230751E-12 0.284649826E-12 0.901212427E-13 0.272727177E-13 0.786010491E-14 0.214869982E-14 0.554661420E-15 0.134529399E-15 0.304865653E-16 0.641424385E-17 0.124388329E-17 0.220483519E-18 0.353739201E-19 0.507747855E-20 0.642906138E-21 0.831275432E-22 0.105854198E-19 0.861094935E-17 0.304265034E-14 0.584915308E-12 0.644865758E-10 0.387052790E-08 0.545403633E-08 0.120902871E-09 0.142083838E-11 0.982721950E-14 0.403351001E-16 0.908568593E-19 0.106342704E-21 0.108669452E-21 0.880215088E-21 0.629526330E-20 0.402851854E-19 0.233373785E-18 0.123595042E-17 0.603451501E-17 0.273614257E-16 0.115947309E-15 0.461802945E-15 0.173743568E-14 0.620258934E-14 0.210967227E-13 0.686175766E-13 0.214137803E-12 0.643168678E-12 0.186448166E-11 0.523030664E-11 0.142325804E-10 0.376535782E-10 0.919316845E-10 0.207424258E-09 0.432997582E-09 0.837001690E-09 0.149912316E-08 0.248842413E-08 0.382750098E-08 0.545156231E-08 0.718097493E-08 0.872986483E-08 0.976483427E-08 0.100062270E-07 0.933695521E-08 0.786817456E-08 0.592035576E-08 0.391609900E-08 0.222842034E-08 0.105819020E-08 0.401460809E-09 0.114181990E-09 0.221153859E-10 0.249277595E-11 0.117471178E-12 0.281073568E-18
0.547186038E-11 0.556788886E-10 0.328291949E-09 0.130863931E-08 0.388308719E-08 0.915305609E-08 0.179293984E-07 0.301301313E-07 0.444408137E-07 0.584919171E-07 0.695333640E-07 0.753211111E-07 0.748280158E-07 0.684926533E-07 0.579507073E-07 0.454192275E-07 0.330178089E-07 0.222767120E-07 0.139501690E-07 0.810536349E-08 0.436627889E-08 0.217843876E-08 0.100533015E-08 0.428484442E-09 0.168370207E-09 0.640475450E-10 0.235331112E-10 0.833185777E-11 0.283490267E-11 0.924286364E-12 0.287845540E-12 0.853230518E-13 0.239789894E-13 0.636157658E-14 0.158545573E-14 0.369162449E-15 0.798089795E-16 0.159060214E-16 0.289844335E-17 0.478257839E-18 0.706403325E-19 0.921009067E-20 0.106499292E-20 0.190770193E-19 0.130338667E-16 0.434354684E-14 0.813140137E-12 0.884713969E-10 0.527969490E-08 0.742506767E-08 0.164659689E-09 0.194718503E-11 0.136531945E-13 0.576057711E-16 0.138126457E-18 0.346149212E-21 0.160080784E-20 0.126003292E-19 0.875732302E-19 0.544941676E-18 0.307138924E-17 0.158321840E-16 0.752600950E-16 0.332289384E-15 0.137123856E-14 0.531801674E-14 0.194784493E-13 0.676751203E-13 0.223915640E-12 0.708053299E-12 0.214672486E-11 0.625884327E-11 0.175949515E-10 0.478113833E-10 0.125866914E-09 0.321692534E-09 0.759680652E-09 0.165997860E-08 0.336029760E-08 0.630770147E-08 0.109868736E-07 0.177637389E-07 0.266579754E-07 0.371122155E-07 0.478746749E-07 0.571171697E-07 0.628416927E-07 0.634969410E-07 0.585824047E-07 0.489578653E-07 0.366563953E-07 0.242205580E-07 0.138296121E-07 0.662508270E-08 0.255225729E-08 0.743030748E-09 0.148724255E-09 0.175108556E-10 0.871519599E-12 0.211081727E-17
0.324960198E-10 0.314846510E-09 0.178696424E-08 0.692314117E-08 0.201283008E-07 0.467998724E-07 0.909268536E-07 0.152263439E-06 0.224691334E-06 0.296923872E-06 0.355522019E-06 0.389018993E-06 0.391431826E-06 0.363786143E-06 0.313233954E-06 0.250373404E-06 0.185996001E-06 0.128476870E-06 0.825144895E-07 0.492504668E-07 0.272962222E-07 0.140318877E-07 0.668114186E-08 0.294177505E-08 0.119565902E-08 0.469783767E-09 0.178064133E-09 0.649603774E-10 0.227520520E-10 0.762934074E-11 0.244183124E-11 0.743412601E-12 0.214480099E-12 0.583917205E-13 0.149300568E-13 0.356605614E-14 0.790825535E-15 0.161694460E-15 0.302344010E-16 0.512096061E-17 0.776776517E-18 0.104067076E-18 0.121420945E-19 0.319622427E-19 0.187334356E-16 0.593975967E-14 0.108518630E-11 0.116570892E-09 0.691518398E-08 0.970572156E-08 0.215433338E-09 0.256392563E-11 0.182161550E-13 0.788244493E-16 0.199402084E-18 0.238099921E-20 0.185800178E-19 0.142329711E-18 0.963274467E-18 0.584038937E-17 0.320875403E-16 0.161286085E-15 0.747771168E-15 0.322039724E-14 0.129623680E-13 0.490270971E-13 0.175081629E-12 0.592852807E-12 0.191078772E-11 0.588204875E-11 0.173477673E-10 0.491563318E-10 0.134167594E-09 0.353558599E-09 0.901459352E-09 0.222817476E-08 0.509475928E-08 0.107922684E-07 0.212063558E-07 0.386927859E-07 0.656044392E-07 0.103410713E-06 0.151547837E-06 0.206397033E-06 0.260968164E-06 0.305801706E-06 0.331193178E-06 0.330215556E-06 0.301418197E-06 0.249944236E-06 0.186291260E-06 0.122981191E-06 0.704556768E-07 0.340353310E-07 0.133027545E-07 0.395863520E-08 0.817244272E-09 0.100269945E-09 0.525666490E-11 0.128497256E-16
0.162072689E-09 0.149888757E-08 0.820663448E-08 0.309512735E-07 0.882656934E-07 0.202551803E-06 0.390413675E-06 0.651421658E-06 0.961457772E-06 0.127505075E-05 0.153677752E-05 0.169743453E-05 0.172855437E-05 0.162977722E-05 0.142688214E-05 0.116215313E-05 0.881443100E-06 0.622780419E-06 0.409836900E-06 0.251052683E-06 0.143017374E-06 0.756748975E-07 0.371379230E-07 0.168755321E-07 0.708695369E-08 0.287296653E-08 0.112208454E-08 0.421316482E-09 0.151719540E-09 0.522605258E-10 0.171682651E-10 0.536136153E-11 0.158572819E-11 0.442387826E-12 0.115874432E-12 0.283467690E-13 0.643799165E-14 0.134814092E-14 0.258212965E-15 0.448106502E-16 0.696700067E-17 0.957193656E-18 0.114292243E-18 0.583327703E-19 0.259687811E-16 0.788468750E-14 0.140823041E-11 0.149396245E-09 0.880732465E-08 0.123365247E-07 0.274229306E-09 0.328520718E-11 0.236418483E-13 0.104728279E-15 0.279009572E-18 0.208061111E-19 0.175274415E-18 0.130929653E-17 0.864608964E-17 0.511742532E-16 0.274567106E-15 0.134810386E-14 0.610619614E-14 0.256920119E-13 0.101022936E-12 0.373188703E-12 0.130121369E-11 0.430009934E-11 0.135183574E-10 0.405624423E-10 0.116512897E-09 0.321248611E-09 0.852277915E-09 0.218046647E-08 0.539027889E-08 0.128988376E-07 0.285863688E-07 0.587629323E-07 0.112192012E-06 0.199165342E-06 0.329022669E-06 0.506093500E-06 0.724935603E-06 0.966722951E-06 0.119910453E-05 0.138122596E-05 0.147371793E-05 0.145099966E-05 0.131126671E-05 0.107952792E-05 0.801302690E-06 0.528645899E-06 0.303874657E-06 0.147978071E-06 0.586349778E-07 0.178124751E-07 0.378580900E-08 0.482895390E-09 0.265956562E-10 0.654222440E-16
0.695148217E-09 0.615140960E-08 0.325565637E-07 0.119709199E-06 0.335171336E-06 0.759514592E-06 0.145253546E-05 0.241454745E-05 0.356308237E-05 0.473953560E-05 0.574649630E-05 0.640244662E-05 0.659319403E-05 0.630132126E-05 0.560467060E-05 0.464721779E-05 0.359537194E-05 0.259598505E-05 0.174880734E-05 0.109838902E-05 0.642527766E-06 0.349604022E-06 0.176659100E-06 0.827579072E-07 0.358720698E-07 0.149879842E-07 0.602535044E-08 0.232591013E-08 0.860183924E-09 0.304003683E-09 0.102383053E-09 0.327540703E-10 0.991857117E-11 0.283168324E-11 0.758735305E-12 0.189826291E-12 0.440850156E-13 0.943952151E-14 0.184885142E-14 0.328169813E-15 0.522022931E-16 0.734094090E-17 0.897260698E-18 0.161151831E-18 0.350615458E-16 0.102421894E-13 0.179067991E-11 0.187649341E-09 0.109902469E-07 0.153630246E-07 0.342198270E-09 0.412750476E-11 0.300793834E-13 0.136209396E-15 0.391659422E-18 0.164596444E-18 0.137656761E-17 0.100470581E-16 0.648587355E-16 0.375427237E-15 0.197050251E-14 0.946641820E-14 0.419563676E-13 0.172731675E-12 0.664467504E-12 0.240074909E-11 0.818402117E-11 0.264291141E-10 0.811429188E-10 0.237607045E-09 0.665506816E-09 0.178749593E-08 0.461464822E-08 0.114744738E-07 0.275318239E-07 0.638511537E-07 0.137295714E-06 0.274152029E-06 0.509072549E-06 0.880107109E-06 0.141796261E-05 0.213031763E-05 0.298533564E-05 0.390152400E-05 0.475162778E-05 0.538490349E-05 0.566492827E-05 0.551217408E-05 0.493524294E-05 0.403636113E-05 0.298524060E-05 0.196881888E-05 0.113558531E-05 0.557320732E-06 0.223731007E-06 0.693024376E-07 0.151375144E-07 0.200280903E-08 0.115577284E-09 0.285262353E-15
0.261274424E-08 0.221739143E-07 0.113662111E-06 0.408017911E-06 0.112257453E-05 0.251298070E-05 0.476880996E-05 0.789591741E-05 0.116449482E-04 0.155280213E-04 0.189266339E-04 0.212543109E-04 0.221157206E-04 0.214069114E-04 0.193261676E-04 0.162990746E-04 0.128509355E-04 0.947343688E-05 0.652684685E-05 0.419919297E-05 0.251996971E-05 0.140856275E-05 0.732143405E-06 0.353231854E-06 0.157869138E-06 0.679116354E-07 0.280716126E-07 0.111285523E-07 0.422207203E-08 0.152925494E-08 0.527379307E-09 0.172635406E-09 0.534572837E-10 0.155979066E-10 0.426966622E-11 0.109095458E-11 0.258701968E-12 0.565556276E-13 0.113096847E-13 0.204985150E-14 0.333034032E-15 0.478490599E-16 0.597754418E-17 0.730755496E-18 0.464337142E-16 0.130887097E-13 0.224239529E-11 0.232137462E-09 0.135024152E-07 0.188364631E-07 0.420659091E-09 0.511003869E-11 0.377058038E-13 0.174352918E-15 0.613523789E-18 0.111810396E-17 0.917544221E-17 0.655543878E-16 0.414434136E-15 0.235006771E-14 0.120863487E-13 0.569005360E-13 0.247139982E-12 0.996979409E-12 0.375720679E-11 0.132946284E-10 0.443658027E-10 0.140179077E-09 0.420812718E-09 0.120394317E-08 0.329176264E-08 0.862226468E-08 0.216837392E-07 0.524581552E-07 0.122295404E-06 0.275163757E-06 0.574646037E-06 0.111572115E-05 0.201695070E-05 0.339913936E-05 0.534592846E-05 0.785198608E-05 0.107747355E-04 0.138127334E-04 0.165321399E-04 0.184490018E-04 0.191524850E-04 0.184323380E-04 0.163626282E-04 0.133033382E-04 0.980868663E-05 0.646929129E-05 0.374470278E-05 0.185189015E-05 0.752757103E-06 0.237505134E-06 0.532285362E-07 0.728910665E-08 0.439599634E-09 0.108549464E-14
0.873883454E-08 0.712875448E-07 0.354557955E-06 0.124415078E-05 0.336613152E-05 0.744649287E-05 0.140217071E-04 0.231187187E-04 0.340600855E-04 0.455021218E-04 0.557148014E-04 0.630134236E-04 0.661950980E-04 0.648357673E-04 0.593592522E-04 0.508724188E-04 0.408388914E-04 0.307083974E-04 0.216173339E-04 0.142331928E-04 0.875407750E-05 0.502188004E-05 0.268236317E-05 0.133147512E-05 0.612931160E-06 0.271189322E-06 0.115141731E-06 0.468288874E-07 0.182067197E-07 0.675127376E-08 0.238146636E-08 0.796762101E-09 0.251994370E-09 0.750565443E-10 0.209629397E-10 0.546316074E-11 0.132100277E-11 0.294427948E-12 0.600248001E-13 0.110918109E-13 0.183753909E-14 0.269279450E-15 0.343230886E-16 0.385439075E-17 0.607499375E-16 0.165159227E-13 0.277496168E-11 0.283790408E-09 0.163872258E-07 0.228145627E-07 0.511125864E-09 0.625526800E-11 0.467317360E-13 0.220502131E-15 0.134355855E-17 0.655225438E-17 0.527335714E-16 0.369454596E-15 0.229123640E-14 0.127485328E-13 0.643435839E-13 0.297287206E-12 0.126714676E-11 0.501561032E-11 0.185413386E-10 0.643325046E-10 0.210414478E-09 0.651227960E-09 0.191366190E-08 0.535508171E-08 0.143081236E-07 0.365873944E-07 0.897248711E-07 0.211408292E-06 0.479356572E-06 0.104745277E-05 0.212667328E-05 0.401886109E-05 0.707965091E-05 0.116416468E-04 0.178895443E-04 0.257119355E-04 0.345811350E-04 0.435252150E-04 0.512418410E-04 0.563591675E-04 0.577870815E-04 0.550523473E-04 0.484925149E-04 0.392204456E-04 0.288454903E-04 0.190339215E-04 0.110592691E-04 0.551063567E-05 0.226704219E-05 0.727887198E-06 0.167127254E-06 0.236385631E-07 0.148612456E-08 0.366091621E-14
0.263486299E-07 0.207037672E-06 0.100083037E-05 0.343688498E-05 0.915011606E-05 0.200078466E-04 0.373806251E-04 0.613540251E-04 0.902516695E-04 0.120717785E-03 0.148378400E-03 0.168876591E-03 0.178947928E-03 0.177199880E-03 0.164370198E-03 0.143018886E-03 0.116789030E-03 0.894935365E-04 0.643103049E-04 0.432923262E-04 0.272637863E-04 0.160361633E-04 0.879344589E-05 0.448635546E-05 0.212505779E-05 0.966071184E-06 0.420893628E-06 0.175439780E-06 0.698293263E-07 0.264817110E-07 0.954477297E-08 0.326032801E-08 0.105203191E-08 0.319498844E-09 0.909402206E-10 0.241431441E-10 0.594518575E-11 0.134915278E-11 0.280017139E-12 0.526772263E-13 0.888508424E-14 0.132591044E-14 0.172150063E-15 0.192056284E-16 0.794908062E-16 0.206339648E-13 0.340200806E-11 0.343680556E-09 0.196936849E-07 0.273624092E-07 0.615338946E-09 0.758947332E-11 0.574081459E-13 0.276414988E-15 0.445226904E-17 0.335110189E-16 0.264845709E-15 0.182257244E-14 0.111053931E-13 0.607216033E-13 0.301191255E-12 0.136760102E-11 0.572802873E-11 0.222742692E-10 0.808696582E-10 0.275461237E-09 0.884034013E-09 0.268302247E-08 0.772583064E-08 0.211680877E-07 0.553267689E-07 0.138253824E-06 0.330948581E-06 0.760208138E-06 0.167819940E-05 0.356496253E-05 0.704382319E-05 0.129681603E-04 0.222827930E-04 0.357856188E-04 0.537808191E-04 0.757081871E-04 0.998905380E-04 0.123553036E-03 0.143208556E-03 0.155381262E-03 0.157494549E-03 0.148653024E-03 0.130032233E-03 0.104698098E-03 0.768585669E-04 0.507638251E-04 0.296147518E-04 0.148682175E-04 0.618836157E-05 0.202025467E-05 0.474570840E-06 0.691939519E-07 0.452364723E-08 0.110863264E-13
0.724114315E-07 0.549151082E-06 0.258417776E-05 0.869343239E-05 0.227874280E-04 0.492599829E-04 0.913018157E-04 0.149125306E-03 0.218906818E-03 0.292964018E-03 0.361194805E-03 0.413346628E-03 0.441422831E-03 0.441515644E-03 0.414564274E-03 0.365877844E-03 0.303639972E-03 0.236893102E-03 0.173613109E-03 0.119382072E-03 0.769086109E-04 0.463378783E-04 0.260605993E-04 0.136524959E-04 0.664739173E-05 0.310199357E-05 0.138543544E-05 0.591285811E-06 0.240701297E-06 0.932643545E-07 0.343134232E-07 0.119544632E-07 0.393143207E-08 0.121609656E-08 0.352367607E-09 0.951875939E-10 0.238420915E-10 0.550198125E-11 0.116104489E-11 0.222055732E-12 0.380789692E-13 0.577794335E-14 0.762946557E-15 0.860291792E-16 0.107082355E-15 0.255755330E-13 0.413959622E-11 0.413046292E-09 0.234772077E-07 0.325534764E-07 0.735301653E-09 0.914346897E-11 0.700346831E-13 0.344737116E-15 0.176622665E-16 0.151276842E-15 0.117584500E-14 0.796034533E-14 0.477266948E-13 0.256802690E-12 0.125353102E-11 0.560086352E-11 0.230796493E-10 0.882756299E-10 0.315123455E-09 0.105491393E-08 0.332544658E-08 0.990721194E-08 0.279832815E-07 0.751448894E-07 0.192314886E-06 0.470074298E-06 0.109943403E-05 0.246446780E-05 0.530191755E-05 0.109600842E-04 0.210949274E-04 0.378730510E-04 0.635348042E-04 0.997446623E-04 0.146737992E-03 0.202505442E-03 0.262357964E-03 0.319190993E-03 0.364584645E-03 0.390586094E-03 0.391721987E-03 0.366633496E-03 0.318750914E-03 0.255695428E-03 0.187479673E-03 0.124009792E-03 0.726621802E-04 0.367590656E-04 0.154746140E-04 0.513290843E-05 0.123203984E-05 0.184836750E-06 0.125363977E-07 0.304845396E-13