<?xml version="1.0"?>
<VTKFile type="StructuredGrid">
<StructuredGrid WholeExtent="     0   100     0   100     0     0">
<Piece Extent="     0   100     0   100     0     0">
<Points>
<DataArray type="Float32" NumberOfComponents="3"/>
0.000000000E+00 0.000000000E+00 0.000000000E+00 0.199999996E-01 0.000000000E+00 0.000000000E+00 0.399999991E-01 0.000000000E+00 0.000000000E+00 0.599999987E-01 0.000000000E+00 0.000000000E+00 0.799999982E-01 0.000000000E+00 0.000000000E+00 0.100000001E+00 0.000000000E+00 0.000000000E+00 0.119999997E+00 0.000000000E+00 0.000000000E+00 0.140000001E+00 0.000000000E+00 0.000000000E+00 0.159999996E+00 0.000000000E+00 0.000000000E+00 0.180000007E+00 0.000000000E+00 0.000000000E+00 0.200000003E+00 0.000000000E+00 0.000000000E+00 0.219999999E+00 0.000000000E+00 0.000000000E+00 0.239999995E+00 0.000000000E+00 0.000000000E+00 0.259999990E+00 0.000000000E+00 0.000000000E+00 0.280000001E+00 0.000000000E+00 0.000000000E+00 0.300000012E+00 0.000000000E+00 0.000000000E+00 0.319999993E+00 0.000000000E+00 0.000000000E+00 0.340000004E+00 0.000000000E+00 0.000000000E+00 0.360000014E+00 0.000000000E+00 0.000000000E+00 0.379999995E+00 0.000000000E+00 0.000000000E+00 0.400000006E+00 0.000000000E+00 0.000000000E+00 0.419999987E+00 0.000000000E+00 0.000000000E+00 0.439999998E+00 0.000000000E+00 0.000000000E+00 0.460000008E+00 0.000000000E+00 0.000000000E+00 0.479999989E+00 0.000000000E+00 0.000000000E+00 0.500000000E+00 0.000000000E+00 0.000000000E+00 0.519999981E+00 0.000000000E+00 0.000000000E+00 0.540000021E+00 0.000000000E+00 0.000000000E+00 0.560000002E+00 0.000000000E+00 0.000000000E+00 0.579999983E+00 0.000000000E+00 0.000000000E+00 0.600000024E+00 0.000000000E+00 0.000000000E+00 0.620000005E+00 0.000000000E+00 0.000000000E+00 0.639999986E+00 0.000000000E+00 0.000000000E+00 0.660000026E+00 0.000000000E+00 0.000000000E+00 0.680000007E+00 0.000000000E+00 0.000000000E+00 0.699999988E+00 0.000000000E+00 0.000000000E+00 0.720000029E+00 0.000000000E+00 0.000000000E+00 0.740000010E+00 0.000000000E+00 0.000000000E+00 0.759999990E+00 0.000000000E+00 0.000000000E+00 0.779999971E+00 0.000000000E+00 0.000000000E+00 0.800000012E+00 0.000000000E+00 0.000000000E+00 0.819999993E+00 0.000000000E+00 0.000000000E+00 0.839999974E+00 0.000000000E+00 0.000000000E+00 0.860000014E+00 0.000000000E+00 0.000000000E+00 0.879999995E+00 0.000000000E+00 0.000000000E+00 0.899999976E+00 0.000000000E+00 0.000000000E+00 0.920000017E+00 0.000000000E+00 0.000000000E+00 0.939999998E+00 0.000000000E+00 0.000000000E+00 0.959999979E+00 0.000000000E+00 0.000000000E+00 0.980000019E+00 0.000000000E+00 0.000000000E+00 0.100000000E+01 0.000000000E+00 0.000000000E+00 0.101999998E+01 0.000000000E+00 0.000000000E+00 0.103999996E+01 0.000000000E+00 0.000000000E+00 0.105999994E+01 0.000000000E+00 0.000000000E+00 0.108000004E+01 0.000000000E+00 0.000000000E+00 0.110000002E+01 0.000000000E+00 0.000000000E+00 0.112000000E+01 0.000000000E+00 0.000000000E+00 0.113999999E+01 0.000000000E+00 0.000000000E+00 0.115999997E+01 0.000000000E+00 0.000000000E+00 0.117999995E+01 0.000000000E+00 0.000000000E+00 0.120000005E+01 0.000000000E+00 0.000000000E+00 0.122000003E+01 0.000000000E+00 0.000000000E+00 0.124000001E+01 0.000000000E+00 0.000000000E+00 0.125999999E+01 0.000000000E+00 0.000000000E+00 0.127999997E+01 0.000000000E+00 0.000000000E+00 0.129999995E+01 0.000000000E+00 0.000000000E+00 0.132000005E+01 0.000000000E+00 0.000000000E+00 0.134000003E+01 0.000000000E+00 0.000000000E+00 0.136000001E+01 0.000000000E+00 0.000000000E+00 0.138000000E+01 0.000000000E+00 0.000000000E+00 0.139999998E+01 0.000000000E+00 0.000000000E+00 0.141999996E+01 0.000000000E+00 0.000000000E+00 0.144000006E+01 0.000000000E+00 0.000000000E+00 0.146000004E+01 0.000000000E+00 0.000000000E+00 0.148000002E+01 0.000000000E+00 0.000000000E+00 0.150000000E+01 0.000000000E+00 0.000000000E+00 0.151999998E+01 0.000000000E+00 0.000000000E+00 0.153999996E+01 0.000000000E+00 0.000000000E+00 0.155999994E+01 0.000000000E+00 0.000000000E+00 0.158000004E+01 0.000000000E+00 0.000000000E+00 0.160000002E+01 0.000000000E+00 0.000000000E+00 0.162000000E+01 0.000000000E+00 0.000000000E+00 0.163999999E+01 0.000000000E+00 0.000000000E+00 0.165999997E+01 0.000000000E+00 0.000000000E+00 0.167999995E+01 0.000000000E+00 0.000000000E+00 0.170000005E+01 0.000000000E+00 0.000000000E+00 0.172000003E+01 0.000000000E+00 0.000000000E+00 0.174000001E+01 0.000000000E+00 0.000000000E+00 0.175999999E+01 0.000000000E+00 0.000000000E+00 0.177999997E+01 0.000000000E+00 0.000000000E+00 0.179999995E+01 0.000000000E+00 0.000000000E+00 0.182000005E+01 0.000000000E+00 0.000000000E+00 0.184000003E+01 0.000000000E+00 0.000000000E+00 0.186000001E+01 0.000000000E+00 0.000000000E+00 0.188000000E+01 0.000000000E+00 0.000000000E+00 0.189999998E+01 0.000000000E+00 0.000000000E+00 0.191999996E+01 0.000000000E+00 0.000000000E+00 0.194000006E+01 0.000000000E+00 0.000000000E+00 0.196000004E+01 0.000000000E+00 0.000000000E+00 0.198000002E+01 0.000000000E+00 0.000000000E+00 0.200000000E+01 0.000000000E+00 0.000000000E+00
0.000000000E+00 0.999999978E-02 0.000000000E+00 0.199999996E-01 0.999999978E-02 0.000000000E+00 0.399999991E-01 0.999999978E-02 0.000000000E+00 0.599999987E-01 0.999999978E-02 0.000000000E+00 0.799999982E-01 0.999999978E-02 0.000000000E+00 0.100000001E+00 0.999999978E-02 0.000000000E+00 0.119999997E+00 0.999999978E-02 0.000000000E+00 0.140000001E+00 0.999999978E-02 0.000000000E+00 0.159999996E+00 0.999999978E-02 0.000000000E+00 0.180000007E+00 0.999999978E-02 0.000000000E+00 0.200000003E+00 0.999999978E-02 0.000000000E+00 0.219999999E+00 0.999999978E-02 0.000000000E+00 0.239999995E+00 0.999999978E-02 0.000000000E+00 0.259999990E+00 0.999999978E-02 0.000000000E+00 0.280000001E+00 0.999999978E-02 0.000000000E+00 0.300000012E+00 0.999999978E-02 0.000000000E+00 0.319999993E+00 0.999999978E-02 0.000000000E+00 0.340000004E+00 0.999999978E-02 0.000000000E+00 0.360000014E+00 0.999999978E-02 0.000000000E+00 0.379999995E+00 0.999999978E-02 0.000000000E+00 0.400000006E+00 0.999999978E-02 0.000000000E+00 0.419999987E+00 0.999999978E-02 0.000000000E+00 0.439999998E+00 0.999999978E-02 0.000000000E+00 0.460000008E+00 0.999999978E-02 0.000000000E+00 0.479999989E+00 0.999999978E-02 0.000000000E+00 0.500000000E+00 0.999999978E-02 0.000000000E+00 0.519999981E+00 0.999999978E-02 0.000000000E+00 0.540000021E+00 0.999999978E-02 0.000000000E+00 0.560000002E+00 0.999999978E-02 0.000000000E+00 0.579999983E+00 0.999999978E-02 0.000000000E+00 0.600000024E+00 0.999999978E-02 0.000000000E+00 0.620000005E+00 0.999999978E-02 0.000000000E+00 0.639999986E+00 0.999999978E-02 0.000000000E+00 0.660000026E+00 0.999999978E-02 0.000000000E+00 0.680000007E+00 0.999999978E-02 0.000000000E+00 0.699999988E+00 0.999999978E-02 0.000000000E+00 0.720000029E+00 0.999999978E-02 0.000000000E+00 0.740000010E+00 0.999999978E-02 0.000000000E+00 0.759999990E+00 0.999999978E-02 0.000000000E+00 0.779999971E+00 0.999999978E-02 0.000000000E+00 0.800000012E+00 0.999999978E-02 0.000000000E+00 0.819999993E+00 0.999999978E-02 0.000000000E+00 0.839999974E+00 0.999999978E-02 0.000000000E+00 0.860000014E+00 0.999999978E-02 0.000000000E+00 0.879999995E+00 0.999999978E-02 0.000000000E+00 0.899999976E+00 0.999999978E-02 0.000000000E+00 0.920000017E+00 0.999999978E-02 0.000000000E+00 0.939999998E+00 0.999999978E-02 0.000000000E+00 0.959999979E+00 0.999999978E-02 0.000000000E+00 0.980000019E+00 0.999999978E-02 0.000000000E+00 0.100000000E+01 0.999999978E-02 0.000000000E+00 0.101999998E+01 0.999999978E-02 0.000000000E+00 0.103999996E+01 0.999999978E-02 0.000000000E+00 0.105999994E+01 0.999999978E-02 0.000000000E+00 0.108000004E+01 0.999999978E-02 0.000000000E+00 0.110000002E+01 0.999999978E-02 0.000000000E+00 0.112000000E+01 0.999999978E-02 0.000000000E+00 0.113999999E+01 0.999999978E-02 0.000000000E+00 0.115999997E+01 0.999999978E-02 0.000000000E+00 0.117999995E+01 0.999999978E-02 0.000000000E+00 0.120000005E+01 0.999999978E-02 0.000000000E+00 0.122000003E+01 0.999999978E-02 0.000000000E+00 0.124000001E+01 0.999999978E-02 0.000000000E+00 0.125999999E+01 0.999999978E-02 0.000000000E+00 0.127999997E+01 0.999999978E-02 0.000000000E+00 0.129999995E+01 0.999999978E-02 0.000000000E+00 0.132000005E+01 0.999999978E-02 0.000000000E+00 0.134000003E+01 0.999999978E-02 0.000000000E+00 0.136000001E+01 0.999999978E-02 0.000000000E+00 0.138000000E+01 0.999999978E-02 0.000000000E+00 0.139999998E+01 0.999999978E-02 0.000000000E+00 0.141999996E+01 0.999999978E-02 0.000000000E+00 0.144000006E+01 0.999999978E-02 0.000000000E+00 0.146000004E+01 0.999999978E-02 0.000000000E+00 0.148000002E+01 0.999999978E-02 0.000000000E+00 0.150000000E+01 0.999999978E-02 0.000000000E+00 0.151999998E+01 0.999999978E-02 0.000000000E+00 0.153999996E+01 0.999999978E-02 0.000000000E+00 0.155999994E+01 0.999999978E-02 0.000000000E+00 0.158000004E+01 0.999999978E-02 0.000000000E+00 0.160000002E+01 0.999999978E-02 0.000000000E+00 0.162000000E+01 0.999999978E-02 0.000000000E+00 0.163999999E+01 0.999999978E-02 0.000000000E+00 0.165999997E+01 0.999999978E-02 0.000000000E+00 0.167999995E+01 0.999999978E-02 0.000000000E+00 0.170000005E+01 0.999999978E-02 0.000000000E+00 0.172000003E+01 0.999999978E-02 0.000000000E+00 0.174000001E+01 0.999999978E-02 0.000000000E+00 0.175999999E+01 0.999999978E-02 0.000000000E+00 0.177999997E+01 0.999999978E-02 0.000000000E+00 0.179999995E+01 0.999999978E-02 0.000000000E+00 0.182000005E+01 0.999999978E-02 0.000000000E+00 0.184000003E+01 0.999999978E-02 0.000000000E+00 0.186000001E+01 0.999999978E-02 0.000000000E+00 0.188000000E+01 0.999999978E-02 0.000000000E+00 0.189999998E+01 0.999999978E-02 0.000000000E+00 0.191999996E+01 0.999999978E-02 0.000000000E+00 0.194000006E+01 0.999999978E-02 0.000000000E+00 0.196000004E+01 0.999999978E-02 0.000000000E+00 0.198000002E+01 0.999999978E-02 0.000000000E+00 0.200000000E+01 0.999999978E-02 0.000000000E+00
[...]
<CellData Scalars="Temperature, U, V">
<DataArray type="Float32" Name="Temp, K"/>
0.000000000E+00 0.000000000E+00 0.000000000E+00 0.000000000E+00 0.000000000E+00 0.000000000E+00 0.000000000E+00 0.000000000E+00 0.000000000E+00 0.181748411E-41 0.179479709E-39 0.491148526E-38 0.497090844E-37 0.215539053E-36 0.443712616E-36 0.478517373E-36 0.300810665E-36 0.121402468E-36 0.337762816E-37 0.680735800E-38 0.102893142E-38 0.119513943E-39 0.108334384E-40 0.769312857E-42 0.000000000E+00 0.000000000E+00 0.000000000E+00 0.000000000E+00 0.000000000E+00 0.000000000E+00 0.000000000E+00 0.000000000E+00 0.000000000E+00 0.000000000E+00 0.000000000E+00 0.000000000E+00 0.000000000E+00 0.238220739E-43 0.980908925E-43 0.573338044E-38 0.652436540E-32 0.527916464E-26 0.230806352E-20 0.351621786E-18 0.499906987E-13 0.337158925E-11 0.109254848E-09 0.201905093E-08 0.210437836E-07 0.291504172E-07 0.383928045E-08 0.279960222E-09 0.122636450E-10 0.313324209E-12 0.375240847E-14 0.281857819E-19 0.162828603E-21 0.381014352E-27 0.482386010E-33 0.435812230E-39 0.770714155E-43 0.154142831E-43 0.000000000E+00 0.000000000E+00 0.000000000E+00 0.000000000E+00 0.000000000E+00 0.000000000E+00 0.000000000E+00 0.000000000E+00 0.000000000E+00 0.000000000E+00 0.000000000E+00 0.000000000E+00 0.000000000E+00 0.629183010E-42 0.950500748E-41 0.104627950E-39 0.903267181E-39 0.600403143E-38 0.299360008E-37 0.107929017E-36 0.266867584E-36 0.419257514E-36 0.377618995E-36 0.174911532E-36 0.378626361E-37 0.346901524E-38 0.116506757E-39 0.111823617E-41 0.000000000E+00 0.000000000E+00 0.000000000E+00 0.000000000E+00 0.000000000E+00 0.000000000E+00 0.000000000E+00 0.000000000E+00 0.000000000E+00 0.000000000E+00
0.000000000E+00 0.000000000E+00 0.000000000E+00 0.000000000E+00 0.000000000E+00 0.000000000E+00 0.000000000E+00 0.000000000E+00 0.120918044E-40 0.219071575E-38 0.106405402E-36 0.187717601E-35 0.141282769E-34 0.502568777E-34 0.917272221E-34 0.935330638E-34 0.583363236E-34 0.241144171E-34 0.701828314E-35 0.150151404E-35 0.243473299E-36 0.305876718E-37 0.302598212E-38 0.238607497E-39 0.150961884E-40 0.909442703E-42 0.000000000E+00 0.000000000E+00 0.000000000E+00 0.000000000E+00 0.000000000E+00 0.000000000E+00 0.000000000E+00 0.000000000E+00 0.000000000E+00 0.000000000E+00 0.126116862E-43 0.546506401E-43 0.112475221E-39 0.132645469E-33 0.120375220E-27 0.761495257E-22 0.262662171E-16 0.329162403E-14 0.287634825E-12 0.132799266E-10 0.369512837E-09 0.635385877E-08 0.642152216E-07 0.885461873E-07 0.117232180E-07 0.886651919E-09 0.420596127E-10 0.127067031E-11 0.234011707E-13 0.240126641E-15 0.166195495E-17 0.490362447E-23 0.791501235E-29 0.896825349E-35 0.786548828E-41 0.560519386E-43 0.980908925E-44 0.000000000E+00 0.000000000E+00 0.000000000E+00 0.000000000E+00 0.000000000E+00 0.000000000E+00 0.000000000E+00 0.000000000E+00 0.000000000E+00 0.000000000E+00 0.769312857E-42 0.132801055E-40 0.208203525E-39 0.263641274E-38 0.266854760E-37 0.213137026E-36 0.132073201E-35 0.620403089E-35 0.213859114E-34 0.516567089E-34 0.819233524E-34 0.782812198E-34 0.410479298E-34 0.108623018E-34 0.134026499E-35 0.697802522E-37 0.130744089E-38 0.649922228E-41 0.000000000E+00 0.000000000E+00 0.000000000E+00 0.000000000E+00 0.000000000E+00 0.000000000E+00 0.000000000E+00 0.000000000E+00 0.000000000E+00
0.000000000E+00 0.000000000E+00 0.000000000E+00 0.000000000E+00 0.000000000E+00 0.000000000E+00 0.000000000E+00 0.337572800E-40 0.113221651E-37 0.960169887E-36 0.288183087E-34 0.365534777E-33 0.218622333E-32 0.666140232E-32 0.110877043E-31 0.108639761E-31 0.677100762E-32 0.287296091E-32 0.874341331E-33 0.198257867E-33 0.344232386E-34 0.466765747E-35 0.501441494E-36 0.431410191E-37 0.299697244E-38 0.194716027E-39 0.118816097E-40 0.629183010E-42 0.000000000E+00 0.000000000E+00 0.000000000E+00 0.000000000E+00 0.000000000E+00 0.000000000E+00 0.000000000E+00 0.420389539E-44 0.546506401E-43 0.179506333E-41 0.205934912E-35 0.179267346E-29 0.104459048E-23 0.299980952E-18 0.128722154E-15 0.137053853E-13 0.893148511E-12 0.354324729E-10 0.905580722E-09 0.148504169E-07 0.146672150E-06 0.200931765E-06 0.267164744E-07 0.207176432E-08 0.103304768E-09 0.341152779E-11 0.736831250E-13 0.994530288E-15 0.813395896E-17 0.167805203E-19 0.599642078E-25 0.106551298E-30 0.127717604E-36 0.142932443E-42 0.280259693E-43 0.000000000E+00 0.000000000E+00 0.000000000E+00 0.000000000E+00 0.000000000E+00 0.000000000E+00 0.000000000E+00 0.000000000E+00 0.559118087E-42 0.104831138E-40 0.171580589E-39 0.261865689E-38 0.375390875E-37 0.435796737E-36 0.406227717E-35 0.300642151E-34 0.173996398E-33 0.771209150E-33 0.254260824E-32 0.598575719E-32 0.951097328E-32 0.948163000E-32 0.547000500E-32 0.169496220E-32 0.263700117E-33 0.191076750E-34 0.578892314E-36 0.614573633E-38 0.163545544E-40 0.000000000E+00 0.000000000E+00 0.000000000E+00 0.000000000E+00 0.000000000E+00 0.000000000E+00 0.000000000E+00 0.000000000E+00
0.000000000E+00 0.000000000E+00 0.000000000E+00 0.000000000E+00 0.000000000E+00 0.000000000E+00 0.462680727E-40 0.285194393E-37 0.418176232E-35 0.209965056E-33 0.438505347E-32 0.429689206E-31 0.213858675E-30 0.575906186E-30 0.892331868E-30 0.849915894E-30 0.531988776E-30 0.231964979E-30 0.737484937E-31 0.176864909E-31 0.327973907E-32 0.478768380E-33 0.557351865E-34 0.522356966E-35 0.396935749E-36 0.282209880E-37 0.187075867E-38 0.115109662E-39 0.650062358E-41 0.280259693E-42 0.000000000E+00 0.000000000E+00 0.000000000E+00 0.000000000E+00 0.000000000E+00 0.966895940E-43 0.102294788E-42 0.277220052E-37 0.235522224E-31 0.138611797E-25 0.419794080E-20 0.194333346E-17 0.421177127E-15 0.385667653E-13 0.218067144E-11 0.792425778E-10 0.191565364E-08 0.303570360E-07 0.294307171E-06 0.400297665E-06 0.534518776E-07 0.422302859E-08 0.218000895E-09 0.762036528E-11 0.180137860E-12 0.278518621E-14 0.265742773E-16 0.108617913E-18 0.210061391E-21 0.723064638E-27 0.129066166E-32 0.160831649E-38 0.504467447E-43 0.742688186E-43 0.000000000E+00 0.000000000E+00 0.000000000E+00 0.000000000E+00 0.000000000E+00 0.280259693E-42 0.601016911E-41 0.103718507E-39 0.166178584E-38 0.247883196E-37 0.345994223E-36 0.453483895E-35 0.483351281E-34 0.415846876E-33 0.285905903E-32 0.154938648E-31 0.649318982E-31 0.204932041E-30 0.469604680E-30 0.743659151E-30 0.764201432E-30 0.474994886E-30 0.167029225E-30 0.312979632E-31 0.293928193E-32 0.127970927E-33 0.229143625E-35 0.138895106E-37 0.197793278E-40 0.000000000E+00 0.000000000E+00 0.000000000E+00 0.000000000E+00 0.000000000E+00 0.000000000E+00 0.000000000E+00
0.000000000E+00 0.000000000E+00 0.000000000E+00 0.000000000E+00 0.000000000E+00 0.334083567E-40 0.379463104E-37 0.958710420E-35 0.797346359E-33 0.269710978E-31 0.424074116E-30 0.337289315E-29 0.144494519E-28 0.352111242E-28 0.515793590E-28 0.481673243E-28 0.303874129E-28 0.136233152E-28 0.451885419E-29 0.114344784E-29 0.225778564E-30 0.353672367E-31 0.444777528E-32 0.452905484E-33 0.375709518E-34 0.291678683E-35 0.211162921E-36 0.142041049E-37 0.883555116E-39 0.503906928E-40 0.265686189E-41 0.700649232E-43 0.000000000E+00 0.000000000E+00 0.882818033E-43 0.756701171E-43 0.330283245E-39 0.254583814E-33 0.138997771E-27 0.402110014E-22 0.287108801E-19 0.746392446E-17 0.112863847E-14 0.908492980E-13 0.467062196E-11 0.159613475E-09 0.370287467E-08 0.571083589E-07 0.544717579E-06 0.735567085E-06 0.986950681E-07 0.791825272E-08 0.419775575E-09 0.152934124E-10 0.384919039E-12 0.653368986E-14 0.711193347E-16 0.417267460E-18 0.144013700E-20 0.183413671E-23 0.671675892E-29 0.131416093E-34 0.183738255E-40 0.868805048E-43 0.868805048E-43 0.000000000E+00 0.000000000E+00 0.700649232E-43 0.258679697E-41 0.473162439E-40 0.809609997E-39 0.127771543E-37 0.187146549E-36 0.255627045E-35 0.326804763E-34 0.392443610E-33 0.385067778E-32 0.306716187E-31 0.196531547E-30 0.100024968E-29 0.397279475E-29 0.120180361E-28 0.267898691E-28 0.421214451E-28 0.442200316E-28 0.291463979E-28 0.113581267E-28 0.247848225E-29 0.287221230E-30 0.166215562E-31 0.441518295E-33 0.470959939E-35 0.163044972E-37 0.123005979E-40 0.000000000E+00 0.000000000E+00 0.000000000E+00 0.000000000E+00 0.000000000E+00 0.000000000E+00
0.000000000E+00 0.000000000E+00 0.000000000E+00 0.000000000E+00 0.132787042E-40 0.280259385E-37 0.122320461E-34 0.167912444E-32 0.910759211E-31 0.226375611E-29 0.282495916E-28 0.189054194E-27 0.715284074E-27 0.160632928E-26 0.225122317E-26 0.207464910E-26 0.132260196E-26 0.609732954E-27 0.210704608E-27 0.561166092E-28 0.117615278E-28 0.197006139E-29 0.266669663E-30 0.294008916E-31 0.265459979E-32 0.224524679E-33 0.177166442E-34 0.129935057E-35 0.882296749E-37 0.551889489E-38 0.315555599E-39 0.163545544E-40 0.769312857E-42 0.238220739E-43 0.476441478E-43 0.408898892E-41 0.267865129E-35 0.127050241E-29 0.321860180E-24 0.309689500E-21 0.116873447E-18 0.221832155E-16 0.266365646E-14 0.192466865E-12 0.919529643E-11 0.299436365E-09 0.671780587E-08 0.101221538E-06 0.950884044E-06 0.127512624E-05 0.172065114E-06 0.139968153E-07 0.758732521E-09 0.285752359E-10 0.755352595E-12 0.137947506E-13 0.167694127E-15 0.124123011E-17 0.587949882E-20 0.141987027E-22 0.137511783E-25 0.585912816E-31 0.134664199E-36 0.235418142E-42 0.364337601E-43 0.308285662E-43 0.839377780E-42 0.161443596E-40 0.302834611E-39 0.516070479E-38 0.806765585E-37 0.116626578E-35 0.156687356E-34 0.196394387E-33 0.230513267E-32 0.254385559E-31 0.230576250E-30 0.170655073E-29 0.102268625E-28 0.490351363E-28 0.185029049E-27 0.537241336E-27 0.116475284E-26 0.181324128E-26 0.193149588E-26 0.133358978E-26 0.565393087E-27 0.140032428E-27 0.193206177E-28 0.141018123E-29 0.509901061E-31 0.833095438E-33 0.529666677E-35 0.103961829E-37 0.412402138E-41 0.000000000E+00 0.000000000E+00 0.000000000E+00 0.000000000E+00 0.000000000E+00
0.000000000E+00 0.000000000E+00 0.000000000E+00 0.300578521E-41 0.118286546E-37 0.900142906E-35 0.204499742E-32 0.177173059E-30 0.689927840E-29 0.133275953E-27 0.137147330E-26 0.793783505E-26 0.270638024E-25 0.568225138E-25 0.769010022E-25 0.702889488E-25 0.453675940E-25 0.215041618E-25 0.773048019E-26 0.216176257E-26 0.479453326E-27 0.855677373E-28 0.124187815E-28 0.147666108E-29 0.144574544E-30 0.132799931E-31 0.113926773E-32 0.908977180E-34 0.671837495E-35 0.458092270E-36 0.286619626E-37 0.163270889E-38 0.837654183E-40 0.383255130E-41 0.266246708E-42 0.313027600E-37 0.125952927E-31 0.274200328E-26 0.286670830E-23 0.139858591E-20 0.368163098E-18 0.564202558E-16 0.574784700E-14 0.379252538E-12 0.170517975E-10 0.533065592E-09 0.116152332E-07 0.171334037E-06 0.158570060E-05 0.211236693E-05 0.286950467E-06 0.236538309E-07 0.130806366E-08 0.506926827E-10 0.139646096E-11 0.271120254E-13 0.361717559E-15 0.316144294E-17 0.185843056E-19 0.644944782E-22 0.123506060E-24 0.113839649E-27 0.577127732E-33 0.160150758E-38 0.294272678E-42 0.406376555E-41 0.856711842E-40 0.161320842E-38 0.274625072E-37 0.427467240E-36 0.613040967E-35 0.814261723E-34 0.100578134E-32 0.115983302E-31 0.125381072E-30 0.127630982E-29 0.107284928E-28 0.740651268E-28 0.416584136E-27 0.188749089E-26 0.678258831E-26 0.189295402E-25 0.399169565E-25 0.614013953E-25 0.660159358E-25 0.472888956E-25 0.214954582E-25 0.592181087E-26 0.946531590E-27 0.838841014E-28 0.390476014E-29 0.888544131E-31 0.893758293E-33 0.336194864E-35 0.367881625E-38 0.769312857E-42 0.000000000E+00 0.000000000E+00 0.000000000E+00 0.000000000E+00
0.000000000E+00 0.000000000E+00 0.348923318E-42 0.288590973E-38 0.389865896E-35 0.148013611E-32 0.205328230E-30 0.124876041E-28 0.370334734E-27 0.579120432E-26 0.505988173E-25 0.258813036E-24 0.808109949E-24 0.160465027E-23 0.211264385E-23 0.192272914E-23 0.125825040E-23 0.613039882E-24 0.228926301E-24 0.670638204E-25 0.156933970E-25 0.297391875E-26 0.461004121E-27 0.588773756E-28 0.622497008E-29 0.618618149E-30 0.575070057E-31 0.497777740E-32 0.399468888E-33 0.295967121E-34 0.201545588E-35 0.125437333E-36 0.707827664E-38 0.358093415E-39 0.468972557E-39 0.141100292E-33 0.255329290E-28 0.279077233E-25 0.147030988E-22 0.483651535E-20 0.991326023E-18 0.129198902E-15 0.116034425E-13 0.708433312E-12 0.302220991E-10 0.911127285E-09 0.193298035E-07 0.279419254E-06 0.254752581E-05 0.337243705E-05 0.461667980E-06 0.385637513E-07 0.217303375E-08 0.864241942E-10 0.246920713E-11 0.505573908E-13 0.730346059E-15 0.725385781E-17 0.502379647E-19 0.224456701E-21 0.639277347E-24 0.117292388E-26 0.107952972E-29 0.675534448E-35 0.428993512E-40 0.380766424E-39 0.722981025E-38 0.123677291E-36 0.192710116E-35 0.275621886E-34 0.363821517E-33 0.445165992E-32 0.506978665E-31 0.539673124E-30 0.539383539E-29 0.508552214E-28 0.398053199E-27 0.257302488E-26 0.136297523E-25 0.585266937E-25 0.200736282E-24 0.539260483E-24 0.110628345E-23 0.167888435E-23 0.181436312E-23 0.133809269E-23 0.644505621E-24 0.194321894E-24 0.352150097E-25 0.368094439E-26 0.211833949E-27 0.633006454E-29 0.906711514E-31 0.557543215E-33 0.121973834E-35 0.721618262E-39 0.700649232E-43 0.000000000E+00 0.000000000E+00 0.000000000E+00
0.000000000E+00 0.000000000E+00 0.403757528E-39 0.999176924E-36 0.645925743E-33 0.144858814E-30 0.138010816E-28 0.626505204E-27 0.147820793E-25 0.193040759E-24 0.146529109E-23 0.673987848E-23 0.195265399E-22 0.370142498E-22 0.476898256E-22 0.433519173E-22 0.287941961E-22 0.144147749E-22 0.558388408E-23 0.170997671E-23 0.421032469E-24 0.844425309E-25 0.139297166E-25 0.190317855E-26 0.216373679E-27 0.231662199E-28 0.232447124E-29 0.217531225E-30 0.188979510E-31 0.151720229E-32 0.112064640E-33 0.757867984E-35 0.466467686E-36 0.259268914E-37 0.237170478E-35 0.275903171E-30 0.297415126E-27 0.161661869E-24 0.569836767E-22 0.141869941E-19 0.239988753E-17 0.274397541E-15 0.222530192E-13 0.126978799E-11 0.516882821E-10 0.150714508E-08 0.311762953E-07 0.441826643E-06 0.396696078E-05 0.522042910E-05 0.720926550E-06 0.610421083E-07 0.350314666E-08 0.142757542E-09 0.421697529E-11 0.905445762E-13 0.140180755E-14 0.154453761E-16 0.122168515E-18 0.663005355E-21 0.250207017E-23 0.688354479E-26 0.127796481E-28 0.125631194E-31 0.128939615E-36 0.274989353E-37 0.475424471E-36 0.745684212E-35 0.106939359E-33 0.141033764E-32 0.171843624E-31 0.194287446E-30 0.204718473E-29 0.201951043E-28 0.187391599E-27 0.164336309E-26 0.120254234E-25 0.730505598E-25 0.365619970E-24 0.149199107E-23 0.489464920E-23 0.126739616E-22 0.253030922E-22 0.378410612E-22 0.409702768E-22 0.309170366E-22 0.156290621E-22 0.508943119E-23 0.102767129E-23 0.123839613E-24 0.854277966E-26 0.320996309E-27 0.615807824E-29 0.551045773E-31 0.203651297E-33 0.251118604E-36 0.760414612E-40 0.000000000E+00 0.000000000E+00 0.000000000E+00
0.000000000E+00 0.312405480E-40 0.149633991E-36 0.170150385E-33 0.628683649E-31 0.947792331E-29 0.660505041E-27 0.234647462E-25 0.455374050E-24 0.508822817E-23 0.341771621E-22 0.143390931E-21 0.389643443E-21 0.710503465E-21 0.900170820E-21 0.819371571E-21 0.552791616E-21 0.284220046E-21 0.114059922E-21 0.364403914E-22 0.941668390E-23 0.199277821E-23 0.348609467E-24 0.507572859E-25 0.617951147E-26 0.709773122E-27 0.765469102E-28 0.771389110E-29 0.722847258E-30 0.626847174E-31 0.500687088E-32 0.366593732E-33 0.244765704E-34 0.153938210E-35 0.785465913E-32 0.403618342E-29 0.196943651E-26 0.701929025E-24 0.185507950E-21 0.372011136E-19 0.538130247E-17 0.550868089E-15 0.409860100E-13 0.220223796E-11 0.858825372E-10 0.242664266E-08 0.489822938E-07 0.680602966E-06 0.601510374E-05 0.787130375E-05 0.109767052E-05 0.942569258E-07 0.550859980E-08 0.229809782E-09 0.700393563E-11 0.157053447E-12 0.258581286E-14 0.311056008E-16 0.275339681E-18 0.175177770E-20 0.823134072E-23 0.303031487E-25 0.861559284E-28 0.188785333E-30 0.409926839E-33 0.157126229E-35 0.248942985E-34 0.359991035E-33 0.476939678E-32 0.581809401E-31 0.656500241E-30 0.688336465E-29 0.673739586E-28 0.618521261E-27 0.535103188E-26 0.438291273E-25 0.300991555E-24 0.172423892E-23 0.817859432E-23 0.317970867E-22 0.999735037E-22 0.249836591E-21 0.485605709E-21 0.715051343E-21 0.773566899E-21 0.594302411E-21 0.312836386E-21 0.108829509E-21 0.241391721E-22 0.329262436E-23 0.265770567E-24 0.121494086E-25 0.297867936E-27 0.364146746E-29 0.200049508E-31 0.430599709E-34 0.282921712E-37 0.391382661E-41 0.000000000E+00 0.000000000E+00
0.118830110E-41 0.125769816E-37 0.266308016E-34 0.167537964E-31 0.407468848E-29 0.440203500E-27 0.236302483E-25 0.680772121E-24 0.111493711E-22 0.108671572E-21 0.655703507E-21 0.253909188E-20 0.652969630E-20 0.115263587E-19 0.144166659E-19 0.131663219E-19 0.902757859E-20 0.476480953E-20 0.197847951E-20 0.658224429E-21 0.178096116E-21 0.396561229E-22 0.733310582E-23 0.113370277E-23 0.147218874E-24 0.180647791E-25 0.208507146E-26 0.225302940E-27 0.226805124E-28 0.211656315E-29 0.182199532E-30 0.143958459E-31 0.103865110E-32 0.689224538E-34 0.111456895E-30 0.322802500E-28 0.975464412E-26 0.254589987E-23 0.535981331E-21 0.899638855E-19 0.113933343E-16 0.105898738E-14 0.730819891E-13 0.371843832E-11 0.139327938E-09 0.381961796E-08 0.752631237E-07 0.102516867E-05 0.891356831E-05 0.116018628E-04 0.163539664E-05 0.142504106E-06 0.848247961E-08 0.362111674E-09 0.113705026E-10 0.265468772E-12 0.462125252E-14 0.600258104E-16 0.586301792E-18 0.427138458E-20 0.240499819E-22 0.111527429E-24 0.435027419E-27 0.154735531E-29 0.591715167E-32 0.719364488E-34 0.105429253E-32 0.141117112E-31 0.173300229E-30 0.196219197E-29 0.205813225E-28 0.200937724E-27 0.183474082E-26 0.157420722E-25 0.127504796E-24 0.979283152E-24 0.633415430E-23 0.343280270E-22 0.154746792E-21 0.574543326E-21 0.173444770E-20 0.418838460E-20 0.792929115E-20 0.114889054E-19 0.123927795E-19 0.965304184E-20 0.525666857E-20 0.193582356E-20 0.466098150E-21 0.708922222E-22 0.656827993E-23 0.356096250E-24 0.107696354E-25 0.170902618E-27 0.130884629E-29 0.427625008E-32 0.506620774E-35 0.158853997E-38 0.700649232E-43 0.000000000E+00
0.538645117E-39 0.237256215E-35 0.269217704E-32 0.109198648E-29 0.186386240E-27 0.152759155E-25 0.656149800E-24 0.157520440E-22 0.222146891E-21 0.191855132E-20 0.105300480E-19 0.380105421E-19 0.932097035E-19 0.160120957E-18 0.198356580E-18 0.182050291E-18 0.126909048E-18 0.687268053E-19 0.294920649E-19 0.101998115E-19 0.288330423E-20 0.673771627E-21 0.131307412E-21 0.214827966E-22 0.296446848E-23 0.387071810E-24 0.476150125E-25 0.549317398E-26 0.591504845E-27 0.591564188E-28 0.546702938E-29 0.464475058E-30 0.360859868E-31 0.290802701E-32 0.897975557E-30 0.188019332E-27 0.402545859E-25 0.816446109E-23 0.142063070E-20 0.204756722E-18 0.230794260E-16 0.196762090E-14 0.126929148E-12 0.614115876E-11 0.221548863E-09 0.589760418E-08 0.113452259E-06 0.151443703E-05 0.129466307E-04 0.167651797E-04 0.239106180E-05 0.211566231E-06 0.128307018E-07 0.560399060E-09 0.181134743E-10 0.439338507E-12 0.805088807E-14 0.112033355E-15 0.119529987E-17 0.980866166E-20 0.645082549E-22 0.363240421E-24 0.183212464E-26 0.922825583E-29 0.487216930E-31 0.270994886E-32 0.365648950E-31 0.454637345E-30 0.519404235E-29 0.547975338E-28 0.536500238E-27 0.489823766E-26 0.419019802E-25 0.337407519E-24 0.256875436E-23 0.185683247E-22 0.113501017E-21 0.583677250E-21 0.250705095E-20 0.890843793E-20 0.258657229E-19 0.604270559E-19 0.111477438E-18 0.158864664E-18 0.170567925E-18 0.134243710E-18 0.752148093E-19 0.290963042E-19 0.752885980E-20 0.126098747E-20 0.132032748E-21 0.832062794E-23 0.302152955E-24 0.599298207E-26 0.604806942E-28 0.281189769E-30 0.516185788E-33 0.301282488E-36 0.341076046E-40 0.000000000E+00