<?xml version="1.0"?>
<VTKFile type="StructuredGrid">
<StructuredGrid WholeExtent="     0   100     0   100     0     0">
<Piece Extent="     0   100     0   100     0     0">
<Points>
<DataArray type="Float32" NumberOfComponents="3"/>
0.000000000E+00 0.000000000E+00 0.000000000E+00 0.199999996E-01 0.000000000E+00 0.000000000E+00 0.399999991E-01 0.000000000E+00 0.000000000E+00 0.599999987E-01 0.000000000E+00 0.000000000E+00 0.799999982E-01 0.000000000E+00 0.000000000E+00 0.100000001E+00 0.000000000E+00 0.000000000E+00 0.119999997E+00 0.000000000E+00 0.000000000E+00 0.140000001E+00 0.000000000E+00 0.000000000E+00 0.159999996E+00 0.000000000E+00 0.000000000E+00 0.180000007E+00 0.000000000E+00 0.000000000E+00 0.200000003E+00 0.000000000E+00 0.000000000E+00 0.219999999E+00 0.000000000E+00 0.000000000E+00 0.239999995E+00 0.000000000E+00 0.000000000E+00 0.259999990E+00 0.000000000E+00 0.000000000E+00 0.280000001E+00 0.000000000E+00 0.000000000E+00 0.300000012E+00 0.000000000E+00 0.000000000E+00 0.319999993E+00 0.000000000E+00 0.000000000E+00 0.340000004E+00 0.000000000E+00 0.000000000E+00 0.360000014E+00 0.000000000E+00 0.000000000E+00 0.379999995E+00 0.000000000E+00 0.000000000E+00 0.400000006E+00 0.000000000E+00 0.000000000E+00 0.419999987E+00 0.000000000E+00 0.000000000E+00 0.439999998E+00 0.000000000E+00 0.000000000E+00 0.460000008E+00 0.000000000E+00 0.000000000E+00 0.479999989E+00 0.000000000E+00 0.000000000E+00 0.500000000E+00 0.000000000E+00 0.000000000E+00 0.519999981E+00 0.000000000E+00 0.000000000E+00 0.540000021E+00 0.000000000E+00 0.000000000E+00 0.560000002E+00 0.000000000E+00 0.000000000E+00 0.579999983E+00 0.000000000E+00 0.000000000E+00 0.600000024E+00 0.000000000E+00 0.000000000E+00 0.620000005E+00 0.000000000E+00 0.000000000E+00 0.639999986E+00 0.000000000E+00 0.000000000E+00 0.660000026E+00 0.000000000E+00 0.000000000E+00 0.680000007E+00 0.000000000E+00 0.000000000E+00 0.699999988E+00 0.000000000E+00 0.000000000E+00 0.720000029E+00 0.000000000E+00 0.000000000E+00 0.740000010E+00 0.000000000E+00 0.000000000E+00 0.759999990E+00 0.000000000E+00 0.000000000E+00 0.779999971E+00 0.000000000E+00 0.000000000E+00 0.800000012E+00 0.000000000E+00 0.000000000E+00 0.819999993E+00 0.000000000E+00 0.000000000E+00 0.839999974E+00 0.000000000E+00 0.000000000E+00 0.860000014E+00 0.000000000E+00 0.000000000E+00 0.879999995E+00 0.000000000E+00 0.000000000E+00 0.899999976E+00 0.000000000E+00 0.000000000E+00 0.920000017E+00 0.000000000E+00 0.000000000E+00 0.939999998E+00 0.000000000E+00 0.000000000E+00 0.959999979E+00 0.000000000E+00 0.000000000E+00 0.980000019E+00 0.000000000E+00 0.000000000E+00 0.100000000E+01 0.000000000E+00 0.000000000E+00 0.101999998E+01 0.000000000E+00 0.000000000E+00 0.103999996E+01 0.000000000E+00 0.000000000E+00 0.105999994E+01 0.000000000E+00 0.000000000E+00 0.108000004E+01 0.000000000E+00 0.000000000E+00 0.110000002E+01 0.000000000E+00 0.000000000E+00 0.112000000E+01 0.000000000E+00 0.000000000E+00 0.113999999E+01 0.000000000E+00 0.000000000E+00 0.115999997E+01 0.000000000E+00 0.000000000E+00 0.117999995E+01 0.000000000E+00 0.000000000E+00 0.120000005E+01 0.000000000E+00 0.000000000E+00 0.122000003E+01 0.000000000E+00 0.000000000E+00 0.124000001E+01 0.000000000E+00 0.000000000E+00 0.125999999E+01 0.000000000E+00 0.000000000E+00 0.127999997E+01 0.000000000E+00 0.000000000E+00 0.129999995E+01 0.000000000E+00 0.000000000E+00 0.132000005E+01 0.000000000E+00 0.000000000E+00 0.134000003E+01 0.000000000E+00 0.000000000E+00 0.136000001E+01 0.000000000E+00 0.000000000E+00 0.138000000E+01 0.000000000E+00 0.000000000E+00 0.139999998E+01 0.000000000E+00 0.000000000E+00 0.141999996E+01 0.000000000E+00 0.000000000E+00 0.144000006E+01 0.000000000E+00 0.000000000E+00 0.146000004E+01 0.000000000E+00 0.000000000E+00 0.148000002E+01 0.000000000E+00 0.000000000E+00 0.150000000E+01 0.000000000E+00 0.000000000E+00 0.151999998E+01 0.000000000E+00 0.000000000E+00 0.153999996E+01 0.000000000E+00 0.000000000E+00 0.155999994E+01 0.000000000E+00 0.000000000E+00 0.158000004E+01 0.000000000E+00 0.000000000E+00 0.160000002E+01 0.000000000E+00 0.000000000E+00 0.162000000E+01 0.000000000E+00 0.000000000E+00 0.163999999E+01 0.000000000E+00 0.000000000E+00 0.165999997E+01 0.000000000E+00 0.000000000E+00 0.167999995E+01 0.000000000E+00 0.000000000E+00 0.170000005E+01 0.000000000E+00 0.000000000E+00 0.172000003E+01 0.000000000E+00 0.000000000E+00 0.174000001E+01 0.000000000E+00 0.000000000E+00 0.175999999E+01 0.000000000E+00 0.000000000E+00 0.177999997E+01 0.000000000E+00 0.000000000E+00 0.179999995E+01 0.000000000E+00 0.000000000E+00 0.182000005E+01 0.000000000E+00 0.000000000E+00 0.184000003E+01 0.000000000E+00 0.000000000E+00 0.186000001E+01 0.000000000E+00 0.000000000E+00 0.188000000E+01 0.000000000E+00 0.000000000E+00 0.189999998E+01 0.000000000E+00 0.000000000E+00 0.191999996E+01 0.000000000E+00 0.000000000E+00 0.194000006E+01 0.000000000E+00 0.000000000E+00 0.196000004E+01 0.000000000E+00 0.000000000E+00 0.198000002E+01 0.000000000E+00 0.000000000E+00 0.200000000E+01 0.000000000E+00 0.000000000E+00
0.000000000E+00 0.999999978E-02 0.000000000E+00 0.199999996E-01 0.999999978E-02 0.000000000E+00 0.399999991E-01 0.999999978E-02 0.000000000E+00 0.599999987E-01 0.999999978E-02 0.000000000E+00 0.799999982E-01 0.999999978E-02 0.000000000E+00 0.100000001E+00 0.999999978E-02 0.000000000E+00 0.119999997E+00 0.999999978E-02 0.000000000E+00 0.140000001E+00 0.999999978E-02 0.000000000E+00 0.159999996E+00 0.999999978E-02 0.000000000E+00 0.180000007E+00 0.999999978E-02 0.000000000E+00 0.200000003E+00 0.999999978E-02 0.000000000E+00 0.219999999E+00 0.999999978E-02 0.000000000E+00 0.239999995E+00 0.999999978E-02 0.000000000E+00 0.259999990E+00 0.999999978E-02 0.000000000E+00 0.280000001E+00 0.999999978E-02 0.000000000E+00 0.300000012E+00 0.999999978E-02 0.000000000E+00 0.319999993E+00 0.999999978E-02 0.000000000E+00 0.340000004E+00 0.999999978E-02 0.000000000E+00 0.360000014E+00 0.999999978E-02 0.000000000E+00 0.379999995E+00 0.999999978E-02 0.000000000E+00 0.400000006E+00 0.999999978E-02 0.000000000E+00 0.419999987E+00 0.999999978E-02 0.000000000E+00 0.439999998E+00 0.999999978E-02 0.000000000E+00 0.460000008E+00 0.999999978E-02 0.000000000E+00 0.479999989E+00 0.999999978E-02 0.000000000E+00 0.500000000E+00 0.999999978E-02 0.000000000E+00 0.519999981E+00 0.999999978E-02 0.000000000E+00 0.540000021E+00 0.999999978E-02 0.000000000E+00 0.560000002E+00 0.999999978E-02 0.000000000E+00 0.579999983E+00 0.999999978E-02 0.000000000E+00 0.600000024E+00 0.999999978E-02 0.000000000E+00 0.620000005E+00 0.999999978E-02 0.000000000E+00 0.639999986E+00 0.999999978E-02 0.000000000E+00 0.660000026E+00 0.999999978E-02 0.000000000E+00 0.680000007E+00 0.999999978E-02 0.000000000E+00 0.699999988E+00 0.999999978E-02 0.000000000E+00 0.720000029E+00 0.999999978E-02 0.000000000E+00 0.740000010E+00 0.999999978E-02 0.000000000E+00 0.759999990E+00 0.999999978E-02 0.000000000E+00 0.779999971E+00 0.999999978E-02 0.000000000E+00 0.800000012E+00 0.999999978E-02 0.000000000E+00 0.819999993E+00 0.999999978E-02 0.000000000E+00 0.839999974E+00 0.999999978E-02 0.000000000E+00 0.860000014E+00 0.999999978E-02 0.000000000E+00 0.879999995E+00 0.999999978E-02 0.000000000E+00 0.899999976E+00 0.999999978E-02 0.000000000E+00 0.920000017E+00 0.999999978E-02 0.000000000E+00 0.939999998E+00 0.999999978E-02 0.000000000E+00 0.959999979E+00 0.999999978E-02 0.000000000E+00 0.980000019E+00 0.999999978E-02 0.000000000E+00 0.100000000E+01 0.999999978E-02 0.000000000E+00 0.101999998E+01 0.999999978E-02 0.000000000E+00 0.103999996E+01 0.999999978E-02 0.000000000E+00 0.105999994E+01 0.999999978E-02 0.000000000E+00 0.108000004E+01 0.999999978E-02 0.000000000E+00 0.110000002E+01 0.999999978E-02 0.000000000E+00 0.112000000E+01 0.999999978E-02 0.000000000E+00 0.113999999E+01 0.999999978E-02 0.000000000E+00 0.115999997E+01 0.999999978E-02 0.000000000E+00 0.117999995E+01 0.999999978E-02 0.000000000E+00 0.120000005E+01 0.999999978E-02 0.000000000E+00 0.122000003E+01 0.999999978E-02 0.000000000E+00 0.124000001E+01 0.999999978E-02 0.000000000E+00 0.125999999E+01 0.999999978E-02 0.000000000E+00 0.127999997E+01 0.999999978E-02 0.000000000E+00 0.129999995E+01 0.999999978E-02 0.000000000E+00 0.132000005E+01 0.999999978E-02 0.000000000E+00 0.134000003E+01 0.999999978E-02 0.000000000E+00 0.136000001E+01 0.999999978E-02 0.000000000E+00 0.138000000E+01 0.999999978E-02 0.000000000E+00 0.139999998E+01 0.999999978E-02 0.000000000E+00 0.141999996E+01 0.999999978E-02 0.000000000E+00 0.144000006E+01 0.999999978E-02 0.000000000E+00 0.146000004E+01 0.999999978E-02 0.000000000E+00 0.148000002E+01 0.999999978E-02 0.000000000E+00 0.150000000E+01 0.999999978E-02 0.000000000E+00 0.151999998E+01 0.999999978E-02 0.000000000E+00 0.153999996E+01 0.999999978E-02 0.000000000E+00 0.155999994E+01 0.999999978E-02 0.000000000E+00 0.158000004E+01 0.999999978E-02 0.000000000E+00 0.160000002E+01 0.999999978E-02 0.000000000E+00 0.162000000E+01 0.999999978E-02 0.000000000E+00 0.163999999E+01 0.999999978E-02 0.000000000E+00 0.165999997E+01 0.999999978E-02 0.000000000E+00 0.167999995E+01 0.999999978E-02 0.000000000E+00 0.170000005E+01 0.999999978E-02 0.000000000E+00 0.172000003E+01 0.999999978E-02 0.000000000E+00 0.174000001E+01 0.999999978E-02 0.000000000E+00 0.175999999E+01 0.999999978E-02 0.000000000E+00 0.177999997E+01 0.999999978E-02 0.000000000E+00 0.179999995E+01 0.999999978E-02 0.000000000E+00 0.182000005E+01 0.999999978E-02 0.000000000E+00 0.184000003E+01 0.999999978E-02 0.000000000E+00 0.186000001E+01 0.999999978E-02 0.000000000E+00 0.188000000E+01 0.999999978E-02 0.000000000E+00 0.189999998E+01 0.999999978E-02 0.000000000E+00 0.191999996E+01 0.999999978E-02 0.000000000E+00 0.194000006E+01 0.999999978E-02 0.000000000E+00 0.196000004E+01 0.999999978E-02 0.000000000E+00 0.198000002E+01 0.999999978E-02 0.000000000E+00 0.200000000E+01 0.999999978E-02 0.000000000E+00
[...]
<CellData Scalars="Temperature, U, V">
<DataArray type="Float32" Name="Temp, K"/>
0.801998029E-18 0.149773838E-16 0.148064694E-15 0.899780124E-15 0.371904384E-14 0.112674034E-13 0.264769015E-13 0.503521107E-13 0.799932698E-13 0.108702584E-12 0.128599713E-12 0.134211828E-12 0.124794530E-12 0.104154864E-12 0.784598555E-13 0.535638801E-13 0.332377626E-13 0.187851291E-13 0.968259371E-14 0.455490443E-14 0.195603603E-14 0.766657567E-15 0.274101106E-15 0.893139928E-16 0.264917925E-16 0.763444278E-17 0.213108733E-17 0.574369816E-18 0.148959848E-18 0.370383690E-19 0.879503906E-20 0.198603197E-20 0.424516875E-21 0.854617258E-22 0.161139024E-22 0.282813793E-23 0.458848538E-24 0.682832330E-25 0.923753578E-26 0.112434933E-26 0.121634007E-27 0.115408892E-28 0.802855406E-26 0.127881831E-22 0.444717774E-17 0.160848910E-14 0.266944751E-12 0.241692534E-10 0.116653320E-08 0.165202374E-08 0.464674479E-10 0.683377291E-12 0.578568226E-14 0.275460144E-16 0.594059402E-19 0.176373829E-24 0.971207290E-28 0.165731688E-28 0.157655879E-27 0.133240581E-26 0.101273601E-25 0.699528078E-25 0.443060030E-24 0.259346799E-23 0.141280192E-22 0.720715061E-22 0.346227972E-21 0.157429576E-20 0.680701062E-20 0.281080302E-19 0.111282624E-18 0.423981840E-18 0.155986597E-17 0.555977620E-17 0.192571915E-16 0.650081111E-16 0.200270525E-15 0.563551084E-15 0.144933563E-14 0.340739861E-14 0.732184258E-14 0.143709304E-13 0.257336029E-13 0.419626763E-13 0.621456689E-13 0.832788496E-13 0.100473469E-12 0.108401813E-12 0.103654037E-12 0.867939686E-13 0.626266075E-13 0.381050002E-13 0.189847934E-13 0.744197811E-14 0.217410488E-14 0.439829084E-15 0.556691295E-16 0.377467329E-17 0.993946428E-19 0.170599836E-24
0.203812125E-16 0.354608332E-15 0.330466749E-14 0.191606019E-13 0.764469190E-13 0.225935346E-12 0.522634236E-12 0.985891815E-12 0.156357750E-11 0.213256929E-11 0.254393316E-11 0.268781351E-11 0.253908374E-11 0.215970926E-11 0.166272508E-11 0.116308189E-11 0.741219965E-12 0.431158825E-12 0.229184185E-12 0.111390064E-12 0.495078527E-13 0.201161346E-13 0.746761949E-14 0.253032035E-14 0.781605528E-15 0.234336297E-15 0.679953978E-16 0.190361208E-16 0.512528097E-17 0.132243577E-17 0.325766137E-18 0.763007941E-19 0.169160261E-19 0.353247077E-20 0.691051544E-21 0.125883381E-21 0.212083203E-22 0.327933955E-23 0.461301600E-24 0.584335219E-25 0.658531916E-26 0.682965332E-27 0.152346143E-22 0.106091657E-19 0.122678371E-16 0.385356454E-14 0.610606834E-12 0.542165132E-10 0.259868438E-08 0.367222430E-08 0.103183670E-09 0.152969792E-11 0.132211060E-13 0.661213705E-16 0.166847655E-18 0.125788794E-21 0.153205687E-24 0.933464637E-27 0.851668793E-26 0.691345926E-25 0.505219459E-24 0.335804203E-23 0.204812982E-22 0.115518570E-21 0.606644083E-21 0.298433739E-20 0.138283693E-19 0.606534643E-19 0.252967703E-18 0.100739370E-17 0.384519995E-17 0.141177132E-16 0.500233273E-16 0.171589698E-15 0.571468142E-15 0.185302963E-14 0.549116721E-14 0.148849913E-13 0.369326253E-13 0.839032010E-13 0.174508452E-12 0.332119179E-12 0.577766405E-12 0.917181912E-12 0.132533286E-11 0.173721074E-11 0.205578371E-11 0.218235911E-11 0.206054856E-11 0.171070265E-11 0.122975545E-11 0.749716858E-12 0.376843169E-12 0.150274256E-12 0.451026410E-13 0.948015876E-14 0.126170756E-14 0.910242913E-16 0.257805107E-17 0.455667319E-23
0.337368617E-15 0.549124895E-14 0.484312941E-13 0.268858422E-12 0.103840244E-11 0.300009063E-11 0.684104032E-11 0.128106579E-10 0.202877645E-10 0.277688653E-10 0.333862070E-10 0.356859299E-10 0.342179375E-10 0.296306972E-10 0.232864058E-10 0.166681963E-10 0.108941762E-10 0.651254614E-11 0.356449050E-11 0.178705119E-11 0.820681901E-12 0.345103503E-12 0.132786319E-12 0.467034926E-13 0.149961779E-13 0.466861055E-14 0.140534794E-14 0.407852902E-15 0.113759926E-15 0.303933222E-16 0.774971537E-17 0.187839482E-17 0.430916638E-18 0.931164130E-19 0.188531021E-19 0.355544038E-20 0.620393386E-21 0.994081113E-22 0.145006834E-22 0.190625694E-23 0.223158766E-24 0.285788498E-25 0.515727662E-22 0.344332057E-19 0.241873914E-16 0.686238396E-14 0.104553258E-11 0.912050296E-10 0.434235004E-08 0.612225426E-08 0.171917119E-09 0.256810003E-11 0.226127304E-13 0.117864992E-15 0.332271007E-18 0.406982353E-21 0.519146749E-24 0.328468246E-25 0.288068066E-24 0.225247872E-23 0.158702974E-22 0.101782892E-21 0.599403425E-21 0.326602935E-20 0.165762778E-19 0.788329102E-19 0.353185416E-18 0.149785079E-17 0.603963525E-17 0.232472543E-16 0.857340743E-16 0.303974476E-15 0.103943807E-14 0.343813765E-14 0.110310812E-13 0.344209727E-13 0.982918784E-13 0.257115374E-12 0.616528584E-12 0.135566135E-11 0.273351263E-11 0.505215791E-11 0.855093166E-11 0.132330214E-10 0.186815216E-10 0.239804687E-10 0.278641953E-10 0.291300803E-10 0.271766915E-10 0.223795340E-10 0.160285916E-10 0.978731853E-11 0.495862683E-11 0.200831235E-11 0.617808810E-12 0.134507002E-12 0.187553339E-13 0.143398453E-14 0.435086712E-16 0.789272312E-22
0.403008874E-14 0.615367945E-13 0.515033925E-12 0.274401400E-11 0.102790615E-10 0.290718127E-10 0.654071936E-10 0.121647595E-09 0.192400249E-09 0.264255923E-09 0.320117266E-09 0.346002060E-09 0.336563527E-09 0.296509012E-09 0.237692671E-09 0.173962164E-09 0.116510301E-09 0.715158904E-10 0.402667413E-10 0.208039037E-10 0.986182056E-11 0.428729101E-11 0.170798120E-11 0.622864824E-12 0.207652594E-12 0.670445890E-13 0.209098824E-13 0.628199656E-14 0.181261366E-14 0.500691869E-15 0.131937134E-15 0.330389966E-16 0.782921487E-17 0.174750486E-17 0.365493683E-18 0.712177369E-19 0.128442223E-19 0.212819375E-20 0.321206212E-21 0.437214639E-22 0.530408537E-23 0.590734249E-24 0.116979956E-21 0.748886287E-19 0.411066347E-16 0.107884647E-13 0.158888495E-11 0.136364919E-09 0.644967102E-08 0.907198761E-08 0.254703231E-09 0.383269024E-11 0.343261830E-13 0.185387997E-15 0.568167719E-18 0.882936241E-21 0.124857305E-23 0.807172980E-24 0.683643821E-23 0.516143360E-22 0.351424154E-21 0.217954559E-20 0.124196096E-19 0.655095250E-19 0.321965629E-18 0.148304902E-17 0.643587503E-17 0.264366163E-16 0.103228534E-15 0.384657593E-15 0.137269535E-14 0.470675118E-14 0.155536205E-13 0.496738677E-13 0.153728267E-12 0.462148549E-12 0.127314153E-11 0.321723984E-11 0.746317851E-11 0.158995647E-10 0.311102047E-10 0.558900842E-10 0.921145937E-10 0.139083342E-09 0.191976546E-09 0.241501902E-09 0.275708040E-09 0.284004764E-09 0.261914240E-09 0.213986273E-09 0.152702448E-09 0.933676608E-10 0.476497938E-10 0.195799262E-10 0.616378476E-11 0.138708370E-11 0.202133191E-12 0.163347034E-13 0.529496865E-15 0.983059225E-21
0.371724237E-13 0.533949458E-12 0.425203189E-11 0.217919242E-10 0.793176913E-10 0.219883667E-09 0.488492802E-09 0.902689368E-09 0.142598933E-08 0.196499350E-08 0.239756393E-08 0.261918887E-08 0.258301336E-08 0.231357533E-08 0.189039784E-08 0.141350054E-08 0.969260339E-09 0.610343442E-09 0.353193697E-09 0.187867596E-09 0.918342624E-10 0.412317958E-10 0.169887836E-10 0.641659339E-11 0.221850099E-11 0.741956301E-12 0.239443908E-12 0.743695402E-13 0.221674299E-13 0.632148651E-14 0.171884796E-14 0.443974807E-15 0.108493982E-15 0.249696032E-16 0.538497474E-17 0.108208583E-17 0.201309563E-18 0.344206009E-19 0.536368628E-20 0.754260986E-21 0.946048951E-22 0.105067587E-22 0.222854367E-21 0.136335663E-18 0.641421589E-16 0.158171849E-13 0.226093970E-11 0.191121022E-09 0.897992702E-08 0.126006876E-07 0.353888169E-09 0.536345838E-11 0.487981678E-13 0.271876903E-15 0.890182927E-18 0.160439596E-20 0.379881570E-23 0.148687059E-22 0.121795630E-21 0.889922343E-21 0.586838035E-20 0.352719119E-19 0.194878750E-18 0.997050320E-18 0.475429791E-17 0.212495735E-16 0.894785952E-16 0.356597112E-15 0.135057932E-14 0.487950016E-14 0.168744955E-13 0.560338756E-13 0.179180672E-12 0.553240830E-12 0.165347933E-11 0.479458964E-11 0.127564747E-10 0.311744935E-10 0.700331113E-10 0.144697046E-09 0.275004519E-09 0.480668783E-09 0.772107378E-09 0.113838172E-08 0.153752511E-08 0.189687444E-08 0.212909090E-08 0.216221752E-08 0.197201033E-08 0.159896574E-08 0.113699195E-08 0.696010027E-09 0.357618823E-09 0.148947507E-09 0.479119348E-10 0.111223591E-10 0.168980108E-11 0.143947164E-12 0.497149471E-14 0.941931728E-20
0.276627273E-12 0.374827513E-11 0.284738535E-10 0.140684034E-09 0.498375341E-09 0.135577338E-08 0.297622949E-08 0.546620216E-08 0.862474714E-08 0.119212986E-07 0.146449342E-07 0.161615432E-07 0.161488476E-07 0.146952859E-07 0.122294281E-07 0.933465483E-08 0.654794974E-08 0.422616608E-08 0.251117527E-08 0.137384970E-08 0.691832314E-09 0.320466931E-09 0.136420916E-09 0.533060089E-10 0.190918201E-10 0.660602432E-11 0.220323889E-11 0.706531621E-12 0.217256456E-12 0.638699841E-13 0.178933186E-13 0.475990800E-14 0.119756165E-14 0.283710324E-15 0.629783422E-16 0.130268630E-16 0.249512766E-17 0.439369442E-18 0.705413616E-19 0.102261011E-19 0.132312941E-20 0.150831619E-21 0.395226760E-21 0.224345237E-18 0.946767834E-16 0.221724647E-13 0.308566844E-11 0.257125071E-09 0.120005339E-07 0.167982943E-07 0.472179462E-09 0.720735060E-11 0.665508569E-13 0.381220730E-15 0.131788473E-17 0.263842706E-20 0.275336059E-22 0.214389069E-21 0.170210809E-20 0.120631432E-19 0.772090513E-19 0.450666609E-18 0.241907171E-17 0.120278315E-16 0.557464742E-16 0.242193798E-15 0.991244859E-15 0.383885793E-14 0.141242642E-13 0.495503093E-13 0.166293547E-12 0.535500247E-12 0.165919340E-11 0.495893908E-11 0.143301647E-10 0.401258991E-10 0.103220661E-09 0.244207404E-09 0.531828248E-09 0.106672327E-08 0.197109840E-08 0.335495787E-08 0.525702060E-08 0.757494512E-08 0.100189537E-07 0.121313084E-07 0.133963738E-07 0.134209444E-07 0.121111032E-07 0.974919701E-08 0.690897783E-08 0.423387103E-08 0.218925478E-08 0.923426835E-09 0.303109676E-09 0.724493174E-10 0.114487994E-10 0.102535602E-11 0.376264232E-13 0.725400174E-19
0.171363423E-11 0.219632264E-10 0.159558505E-09 0.761589625E-09 0.262994426E-08 0.702810388E-08 0.152542583E-07 0.278516659E-07 0.438907399E-07 0.608367046E-07 0.752134355E-07 0.838003871E-07 0.847849151E-07 0.783282417E-07 0.663383375E-07 0.516471488E-07 0.370288546E-07 0.244736658E-07 0.149182569E-07 0.838662562E-08 0.434638370E-08 0.207501705E-08 0.911651588E-09 0.368131803E-09 0.136427106E-09 0.487818709E-10 0.167936932E-10 0.555320677E-11 0.175926624E-11 0.532448868E-12 0.153470403E-12 0.419825748E-13 0.108578206E-13 0.264353223E-14 0.602987032E-15 0.128161776E-15 0.252266959E-16 0.456609902E-17 0.753803592E-18 0.112415603E-18 0.149718786E-19 0.175646956E-20 0.789398997E-21 0.346034517E-18 0.134423004E-15 0.301249944E-13 0.409144637E-11 0.336294353E-09 0.155882187E-07 0.217669456E-07 0.612705886E-09 0.941956409E-11 0.882092996E-13 0.518169441E-15 0.187574040E-17 0.409070903E-20 0.291188275E-21 0.249647733E-20 0.192531651E-19 0.132637868E-18 0.825693083E-18 0.468973316E-17 0.245036441E-16 0.118618600E-15 0.535313917E-15 0.226448605E-14 0.902278469E-14 0.340094401E-13 0.121739831E-12 0.415298736E-12 0.135444141E-11 0.423528443E-11 0.127311581E-10 0.368772339E-10 0.103159217E-09 0.279249734E-09 0.695297597E-09 0.159420266E-08 0.336904171E-08 0.656655619E-08 0.118081855E-07 0.195899474E-07 0.299703089E-07 0.422406146E-07 0.547563559E-07 0.651210925E-07 0.707999774E-07 0.700155667E-07 0.625485725E-07 0.500069852E-07 0.353261882E-07 0.216708607E-07 0.112730429E-07 0.481191265E-08 0.160978220E-08 0.395473876E-09 0.648565091E-10 0.609099143E-11 0.236832364E-12 0.463239186E-18
0.904873745E-11 0.109994562E-09 0.766049391E-09 0.353925889E-08 0.119309327E-07 0.313495789E-07 0.673094362E-07 0.122192503E-06 0.192299382E-06 0.267206502E-06 0.332303699E-06 0.373578985E-06 0.382447638E-06 0.358434193E-06 0.308692591E-06 0.244924934E-06 0.179322598E-06 0.121260697E-06 0.757573417E-07 0.437205898E-07 0.232958559E-07 0.114509993E-07 0.518687804E-08 0.216217644E-08 0.828190405E-09 0.305670239E-09 0.108490099E-09 0.369470288E-10 0.120436447E-10 0.374756216E-11 0.110980702E-11 0.311748240E-12 0.827563861E-13 0.206742785E-13 0.483787654E-14 0.105480219E-14 0.212987374E-15 0.395535964E-16 0.670135989E-17 0.102603773E-17 0.140366566E-18 0.169232187E-19 0.270584127E-20 0.510578474E-18 0.185502426E-15 0.400023507E-13 0.531190239E-11 0.430856073E-09 0.198303471E-07 0.276227059E-07 0.779086851E-09 0.120650824E-10 0.114522880E-12 0.688530478E-15 0.259437093E-17 0.627845393E-20 0.283248230E-20 0.240440886E-19 0.180513751E-18 0.121134831E-17 0.734900592E-17 0.406940039E-16 0.207347114E-15 0.978964576E-15 0.430904168E-14 0.177770667E-13 0.690650675E-13 0.253748167E-12 0.884969127E-12 0.293969406E-11 0.932929168E-11 0.283637974E-10 0.828195915E-10 0.232776479E-09 0.631068031E-09 0.165331804E-08 0.398876532E-08 0.887246898E-08 0.182135942E-07 0.345304407E-07 0.604850143E-07 0.978966241E-07 0.146358175E-06 0.201942711E-06 0.256774712E-06 0.300180062E-06 0.321546139E-06 0.314093256E-06 0.277940359E-06 0.220793481E-06 0.155522457E-06 0.955099893E-07 0.499701400E-07 0.215715001E-07 0.734681693E-08 0.185205495E-08 0.314533843E-09 0.308972674E-10 0.126944137E-11 0.251177550E-17
0.415025445E-10 0.479732198E-09 0.321037685E-08 0.143835042E-07 0.473950017E-07 0.122549693E-06 0.260390749E-06 0.470042977E-06 0.738594622E-06 0.102846730E-05 0.128591432E-05 0.145774936E-05 0.150897165E-05 0.143357840E-05 0.125445399E-05 0.101348519E-05 0.757087946E-06 0.523317738E-06 0.334775223E-06 0.198149820E-06 0.108446152E-06 0.548294103E-07 0.255789203E-07 0.109954881E-07 0.434827463E-08 0.165468217E-08 0.604778450E-09 0.211864026E-09 0.709722975E-10 0.226760728E-10 0.689035244E-11 0.198477259E-11 0.540019201E-12 0.138221940E-12 0.331304537E-13 0.739785955E-14 0.152980831E-14 0.290972255E-15 0.505004021E-16 0.792309408E-17 0.111116247E-17 0.137404186E-18 0.161226500E-19 0.730449802E-18 0.250545914E-15 0.522013259E-13 0.678693213E-11 0.543400602E-09 0.248264627E-07 0.344975462E-07 0.975514114E-09 0.152205228E-10 0.146391119E-12 0.899413041E-15 0.351224197E-17 0.110166612E-19 0.235257549E-19 0.195209067E-18 0.142964489E-17 0.936358775E-17 0.554672312E-16 0.299987147E-15 0.149318811E-14 0.688745190E-14 0.296161614E-13 0.119342985E-12 0.452759005E-12 0.162374118E-11 0.552498021E-11 0.178947673E-10 0.553317808E-10 0.163764627E-09 0.465041672E-09 0.126974808E-08 0.333988948E-08 0.847785397E-08 0.198396783E-07 0.428569891E-07 0.855451034E-07 0.157905745E-06 0.269682573E-06 0.426226563E-06 0.623258643E-06 0.842611712E-06 0.105180345E-05 0.120963637E-05 0.127759824E-05 0.123357245E-05 0.108191193E-05 0.854399957E-06 0.600278440E-06 0.369092788E-06 0.194187479E-06 0.847327613E-07 0.293500424E-07 0.758070584E-08 0.133050615E-08 0.136369915E-09 0.590427447E-11 0.117833367E-16
0.167912739E-09 0.185033122E-08 0.119245112E-07 0.518974410E-07 0.167353747E-06 0.426135301E-06 0.896332438E-06 0.160889556E-05 0.252365453E-05 0.352004076E-05 0.442242481E-05 0.505205662E-05 0.528391502E-05 0.508459379E-05 0.451695632E-05 0.371271358E-05 0.282724750E-05 0.199583565E-05 0.130615445E-05 0.792142885E-06 0.444867737E-06 0.231117696E-06 0.110933705E-06 0.491230381E-07 0.200345234E-07 0.785182319E-08 0.295192537E-08 0.106251097E-08 0.365341701E-09 0.119710089E-09 0.372756825E-10 0.109959906E-10 0.306223818E-11 0.801913657E-12 0.196589937E-12 0.448882908E-13 0.949104568E-14 0.184579469E-14 0.327592295E-15 0.525703091E-16 0.754359106E-17 0.954880962E-18 0.106850119E-18 0.102661055E-17 0.332820156E-15 0.672033298E-13 0.856394122E-11 0.676944001E-09 0.306900816E-07 0.425416680E-07 0.120684907E-08 0.189763639E-10 0.184895935E-12 0.115953538E-14 0.467844710E-17 0.298511873E-19 0.167342089E-18 0.135708006E-17 0.971441821E-17 0.622167008E-16 0.360513792E-15 0.190767829E-14 0.929143644E-14 0.419366656E-13 0.176435093E-12 0.695472868E-12 0.258009911E-11 0.904446743E-11 0.300646522E-10 0.950657539E-10 0.286753371E-09 0.827182933E-09 0.228707275E-08 0.607318151E-08 0.155163153E-07 0.382021312E-07 0.868079226E-07 0.182292965E-06 0.354156441E-06 0.637106098E-06 0.106189759E-05 0.164034418E-05 0.234816662E-05 0.311325243E-05 0.381832115E-05 0.432352681E-05 0.450602238E-05 0.430360342E-05 0.374346155E-05 0.294042229E-05 0.206135837E-05 0.126923737E-05 0.671451744E-06 0.296016253E-06 0.104191209E-06 0.275344139E-07 0.498476060E-08 0.531819311E-09 0.241992502E-10 0.485712879E-16
0.607100537E-09 0.639333964E-08 0.397615487E-07 0.168365474E-06 0.531896831E-06 0.133455706E-05 0.277951585E-05 0.496075745E-05 0.776528668E-05 0.108444383E-04 0.136821091E-04 0.157397644E-04 0.166205718E-04 0.161866101E-04 0.145860067E-04 0.121867724E-04 0.945191914E-05 0.680817493E-05 0.455389500E-05 0.282717861E-05 0.162768777E-05 0.868058862E-06 0.428255163E-06 0.195147081E-06 0.819939032E-07 0.330595036E-07 0.127704407E-07 0.471750727E-08 0.166307523E-08 0.558189217E-09 0.177896531E-09 0.536744885E-10 0.152795866E-10 0.408820764E-11 0.102362032E-11 0.238653742E-12 0.515154800E-13 0.102275586E-13 0.185314398E-14 0.303648368E-15 0.445018206E-16 0.575543502E-17 0.648735317E-18 0.145402687E-17 0.436389627E-15 0.855932079E-13 0.106993242E-10 0.835002012E-09 0.375507341E-07 0.519261398E-07 0.147873636E-08 0.234396062E-10 0.231340392E-12 0.147960795E-14 0.615957313E-17 0.129162908E-18 0.103121360E-17 0.818616315E-17 0.573836433E-16 0.360024710E-15 0.204414842E-14 0.106004860E-13 0.506002609E-13 0.223813779E-12 0.922632305E-12 0.356251855E-11 0.129414543E-10 0.444007053E-10 0.144366727E-09 0.446206128E-09 0.131452338E-08 0.370005426E-08 0.997195837E-08 0.257813184E-07 0.640479030E-07 0.153113589E-06 0.338188414E-06 0.691081652E-06 0.130806905E-05 0.229548482E-05 0.373735952E-05 0.564777019E-05 0.792181345E-05 0.103089978E-04 0.124336138E-04 0.138729856E-04 0.142786585E-04 0.134995698E-04 0.116538486E-04 0.911010557E-05 0.637542598E-05 0.393198707E-05 0.209154291E-05 0.931300406E-06 0.332837715E-06 0.898822137E-07 0.167542726E-07 0.185642057E-08 0.885450949E-10 0.178230105E-15
0.198359729E-08 0.200094217E-07 0.120328991E-06 0.496449729E-06 0.153796600E-05 0.380431152E-05 0.784667100E-05 0.139228905E-04 0.217419038E-04 0.303849774E-04 0.384738159E-04 0.445386067E-04 0.474466651E-04 0.467270147E-04 0.426746046E-04 0.362117717E-04 0.285795122E-04 0.209857571E-04 0.143338484E-04 0.910103154E-05 0.536645166E-05 0.293507924E-05 0.148683887E-05 0.696492350E-06 0.301163936E-06 0.124790205E-06 0.494765651E-07 0.187375253E-07 0.676492373E-08 0.232314701E-08 0.756914087E-09 0.233300768E-09 0.678046438E-10 0.185120721E-10 0.472774727E-11 0.112393092E-11 0.247326926E-12 0.500515868E-13 0.924402800E-14 0.154407012E-14 0.230727804E-15 0.304335828E-16 0.348847955E-17 0.221908322E-17 0.566328134E-15 0.108082732E-12 0.132602748E-10 0.102167708E-08 0.455563658E-07 0.628459418E-07 0.179773851E-08 0.287369833E-10 0.287297096E-12 0.187281610E-14 0.806374456E-17 0.643378444E-18 0.556741852E-17 0.433401514E-16 0.298031984E-15 0.183482943E-14 0.102245449E-13 0.520428359E-13 0.243827636E-12 0.105842386E-11 0.428103213E-11 0.162137786E-10 0.577476192E-10 0.194149835E-09 0.618212204E-09 0.186986870E-08 0.538621903E-08 0.148098689E-07 0.389483361E-07 0.981445041E-07 0.237330127E-06 0.551478422E-06 0.118519506E-05 0.235912421E-05 0.435458423E-05 0.746149772E-05 0.118778007E-04 0.175752211E-04 0.241762355E-04 0.309078096E-04 0.366899512E-04 0.403732301E-04 0.410703033E-04 0.384671694E-04 0.329804170E-04 0.256741278E-04 0.179446270E-04 0.110887859E-04 0.593129789E-05 0.266677444E-05 0.967104256E-06 0.266574318E-06 0.510777696E-07 0.586510174E-08 0.292487673E-09 0.588781919E-15