<?xml version="1.0"?>
<VTKFile type="StructuredGrid">
<StructuredGrid WholeExtent="     0   100     0   100     0     0">
<Piece Extent="     0   100     0   100     0     0">
<Points>
<DataArray type="Float32" NumberOfComponents="3"/>
0.000000000E+00 0.000000000E+00 0.000000000E+00 0.199999996E-01 0.000000000E+00 0.000000000E+00 0.399999991E-01 0.000000000E+00 0.000000000E+00 0.599999987E-01 0.000000000E+00 0.000000000E+00 0.799999982E-01 0.000000000E+00 0.000000000E+00 0.100000001E+00 0.000000000E+00 0.000000000E+00 0.119999997E+00 0.000000000E+00 0.000000000E+00 0.140000001E+00 0.000000000E+00 0.000000000E+00 0.159999996E+00 0.000000000E+00 0.000000000E+00 0.180000007E+00 0.000000000E+00 0.000000000E+00 0.200000003E+00 0.000000000E+00 0.000000000E+00 0.219999999E+00 0.000000000E+00 0.000000000E+00 0.239999995E+00 0.000000000E+00 0.000000000E+00 0.259999990E+00 0.000000000E+00 0.000000000E+00 0.280000001E+00 0.000000000E+00 0.000000000E+00 0.300000012E+00 0.000000000E+00 0.000000000E+00 0.319999993E+00 0.000000000E+00 0.000000000E+00 0.340000004E+00 0.000000000E+00 0.000000000E+00 0.360000014E+00 0.000000000E+00 0.000000000E+00 0.379999995E+00 0.000000000E+00 0.000000000E+00 0.400000006E+00 0.000000000E+00 0.000000000E+00 0.419999987E+00 0.000000000E+00 0.000000000E+00 0.439999998E+00 0.000000000E+00 0.000000000E+00 0.460000008E+00 0.000000000E+00 0.000000000E+00 0.479999989E+00 0.000000000E+00 0.000000000E+00 0.500000000E+00 0.000000000E+00 0.000000000E+00 0.519999981E+00 0.000000000E+00 0.000000000E+00 0.540000021E+00 0.000000000E+00 0.000000000E+00 0.560000002E+00 0.000000000E+00 0.000000000E+00 0.579999983E+00 0.000000000E+00 0.000000000E+00 0.600000024E+00 0.000000000E+00 0.000000000E+00 0.620000005E+00 0.000000000E+00 0.000000000E+00 0.639999986E+00 0.000000000E+00 0.000000000E+00 0.660000026E+00 0.000000000E+00 0.000000000E+00 0.680000007E+00 0.000000000E+00 0.000000000E+00 0.699999988E+00 0.000000000E+00 0.000000000E+00 0.720000029E+00 0.000000000E+00 0.000000000E+00 0.740000010E+00 0.000000000E+00 0.000000000E+00 0.759999990E+00 0.000000000E+00 0.000000000E+00 0.779999971E+00 0.000000000E+00 0.000000000E+00 0.800000012E+00 0.000000000E+00 0.000000000E+00 0.819999993E+00 0.000000000E+00 0.000000000E+00 0.839999974E+00 0.000000000E+00 0.000000000E+00 0.860000014E+00 0.000000000E+00 0.000000000E+00 0.879999995E+00 0.000000000E+00 0.000000000E+00 0.899999976E+00 0.000000000E+00 0.000000000E+00 0.920000017E+00 0.000000000E+00 0.000000000E+00 0.939999998E+00 0.000000000E+00 0.000000000E+00 0.959999979E+00 0.000000000E+00 0.000000000E+00 0.980000019E+00 0.000000000E+00 0.000000000E+00 0.100000000E+01 0.000000000E+00 0.000000000E+00 0.101999998E+01 0.000000000E+00 0.000000000E+00 0.103999996E+01 0.000000000E+00 0.000000000E+00 0.105999994E+01 0.000000000E+00 0.000000000E+00 0.108000004E+01 0.000000000E+00 0.000000000E+00 0.110000002E+01 0.000000000E+00 0.000000000E+00 0.112000000E+01 0.000000000E+00 0.000000000E+00 0.113999999E+01 0.000000000E+00 0.000000000E+00 0.115999997E+01 0.000000000E+00 0.000000000E+00 0.117999995E+01 0.000000000E+00 0.000000000E+00 0.120000005E+01 0.000000000E+00 0.000000000E+00 0.122000003E+01 0.000000000E+00 0.000000000E+00 0.124000001E+01 0.000000000E+00 0.000000000E+00 0.125999999E+01 0.000000000E+00 0.000000000E+00 0.127999997E+01 0.000000000E+00 0.000000000E+00 0.129999995E+01 0.000000000E+00 0.000000000E+00 0.132000005E+01 0.000000000E+00 0.000000000E+00 0.134000003E+01 0.000000000E+00 0.000000000E+00 0.136000001E+01 0.000000000E+00 0.000000000E+00 0.138000000E+01 0.000000000E+00 0.000000000E+00 0.139999998E+01 0.000000000E+00 0.000000000E+00 0.141999996E+01 0.000000000E+00 0.000000000E+00 0.144000006E+01 0.000000000E+00 0.000000000E+00 0.146000004E+01 0.000000000E+00 0.000000000E+00 0.148000002E+01 0.000000000E+00 0.000000000E+00 0.150000000E+01 0.000000000E+00 0.000000000E+00 0.151999998E+01 0.000000000E+00 0.000000000E+00 0.153999996E+01 0.000000000E+00 0.000000000E+00 0.155999994E+01 0.000000000E+00 0.000000000E+00 0.158000004E+01 0.000000000E+00 0.000000000E+00 0.160000002E+01 0.000000000E+00 0.000000000E+00 0.162000000E+01 0.000000000E+00 0.000000000E+00 0.163999999E+01 0.000000000E+00 0.000000000E+00 0.165999997E+01 0.000000000E+00 0.000000000E+00 0.167999995E+01 0.000000000E+00 0.000000000E+00 0.170000005E+01 0.000000000E+00 0.000000000E+00 0.172000003E+01 0.000000000E+00 0.000000000E+00 0.174000001E+01 0.000000000E+00 0.000000000E+00 0.175999999E+01 0.000000000E+00 0.000000000E+00 0.177999997E+01 0.000000000E+00 0.000000000E+00 0.179999995E+01 0.000000000E+00 0.000000000E+00 0.182000005E+01 0.000000000E+00 0.000000000E+00 0.184000003E+01 0.000000000E+00 0.000000000E+00 0.186000001E+01 0.000000000E+00 0.000000000E+00 0.188000000E+01 0.000000000E+00 0.000000000E+00 0.189999998E+01 0.000000000E+00 0.000000000E+00 0.191999996E+01 0.000000000E+00 0.000000000E+00 0.194000006E+01 0.000000000E+00 0.000000000E+00 0.196000004E+01 0.000000000E+00 0.000000000E+00 0.198000002E+01 0.000000000E+00 0.000000000E+00 0.200000000E+01 0.000000000E+00 0.000000000E+00
0.000000000E+00 0.999999978E-02 0.000000000E+00 0.199999996E-01 0.999999978E-02 0.000000000E+00 0.399999991E-01 0.999999978E-02 0.000000000E+00 0.599999987E-01 0.999999978E-02 0.000000000E+00 0.799999982E-01 0.999999978E-02 0.000000000E+00 0.100000001E+00 0.999999978E-02 0.000000000E+00 0.119999997E+00 0.999999978E-02 0.000000000E+00 0.140000001E+00 0.999999978E-02 0.000000000E+00 0.159999996E+00 0.999999978E-02 0.000000000E+00 0.180000007E+00 0.999999978E-02 0.000000000E+00 0.200000003E+00 0.999999978E-02 0.000000000E+00 0.219999999E+00 0.999999978E-02 0.000000000E+00 0.239999995E+00 0.999999978E-02 0.000000000E+00 0.259999990E+00 0.999999978E-02 0.000000000E+00 0.280000001E+00 0.999999978E-02 0.000000000E+00 0.300000012E+00 0.999999978E-02 0.000000000E+00 0.319999993E+00 0.999999978E-02 0.000000000E+00 0.340000004E+00 0.999999978E-02 0.000000000E+00 0.360000014E+00 0.999999978E-02 0.000000000E+00 0.379999995E+00 0.999999978E-02 0.000000000E+00 0.400000006E+00 0.999999978E-02 0.000000000E+00 0.419999987E+00 0.999999978E-02 0.000000000E+00 0.439999998E+00 0.999999978E-02 0.000000000E+00 0.460000008E+00 0.999999978E-02 0.000000000E+00 0.479999989E+00 0.999999978E-02 0.000000000E+00 0.500000000E+00 0.999999978E-02 0.000000000E+00 0.519999981E+00 0.999999978E-02 0.000000000E+00 0.540000021E+00 0.999999978E-02 0.000000000E+00 0.560000002E+00 0.999999978E-02 0.000000000E+00 0.579999983E+00 0.999999978E-02 0.000000000E+00 0.600000024E+00 0.999999978E-02 0.000000000E+00 0.620000005E+00 0.999999978E-02 0.000000000E+00 0.639999986E+00 0.999999978E-02 0.000000000E+00 0.660000026E+00 0.999999978E-02 0.000000000E+00 0.680000007E+00 0.999999978E-02 0.000000000E+00 0.699999988E+00 0.999999978E-02 0.000000000E+00 0.720000029E+00 0.999999978E-02 0.000000000E+00 0.740000010E+00 0.999999978E-02 0.000000000E+00 0.759999990E+00 0.999999978E-02 0.000000000E+00 0.779999971E+00 0.999999978E-02 0.000000000E+00 0.800000012E+00 0.999999978E-02 0.000000000E+00 0.819999993E+00 0.999999978E-02 0.000000000E+00 0.839999974E+00 0.999999978E-02 0.000000000E+00 0.860000014E+00 0.999999978E-02 0.000000000E+00 0.879999995E+00 0.999999978E-02 0.000000000E+00 0.899999976E+00 0.999999978E-02 0.000000000E+00 0.920000017E+00 0.999999978E-02 0.000000000E+00 0.939999998E+00 0.999999978E-02 0.000000000E+00 0.959999979E+00 0.999999978E-02 0.000000000E+00 0.980000019E+00 0.999999978E-02 0.000000000E+00 0.100000000E+01 0.999999978E-02 0.000000000E+00 0.101999998E+01 0.999999978E-02 0.000000000E+00 0.103999996E+01 0.999999978E-02 0.000000000E+00 0.105999994E+01 0.999999978E-02 0.000000000E+00 0.108000004E+01 0.999999978E-02 0.000000000E+00 0.110000002E+01 0.999999978E-02 0.000000000E+00 0.112000000E+01 0.999999978E-02 0.000000000E+00 0.113999999E+01 0.999999978E-02 0.000000000E+00 0.115999997E+01 0.999999978E-02 0.000000000E+00 0.117999995E+01 0.999999978E-02 0.000000000E+00 0.120000005E+01 0.999999978E-02 0.000000000E+00 0.122000003E+01 0.999999978E-02 0.000000000E+00 0.124000001E+01 0.999999978E-02 0.000000000E+00 0.125999999E+01 0.999999978E-02 0.000000000E+00 0.127999997E+01 0.999999978E-02 0.000000000E+00 0.129999995E+01 0.999999978E-02 0.000000000E+00 0.132000005E+01 0.999999978E-02 0.000000000E+00 0.134000003E+01 0.999999978E-02 0.000000000E+00 0.136000001E+01 0.999999978E-02 0.000000000E+00 0.138000000E+01 0.999999978E-02 0.000000000E+00 0.139999998E+01 0.999999978E-02 0.000000000E+00 0.141999996E+01 0.999999978E-02 0.000000000E+00 0.144000006E+01 0.999999978E-02 0.000000000E+00 0.146000004E+01 0.999999978E-02 0.000000000E+00 0.148000002E+01 0.999999978E-02 0.000000000E+00 0.150000000E+01 0.999999978E-02 0.000000000E+00 0.151999998E+01 0.999999978E-02 0.000000000E+00 0.153999996E+01 0.999999978E-02 0.000000000E+00 0.155999994E+01 0.999999978E-02 0.000000000E+00 0.158000004E+01 0.999999978E-02 0.000000000E+00 0.160000002E+01 0.999999978E-02 0.000000000E+00 0.162000000E+01 0.999999978E-02 0.000000000E+00 0.163999999E+01 0.999999978E-02 0.000000000E+00 0.165999997E+01 0.999999978E-02 0.000000000E+00 0.167999995E+01 0.999999978E-02 0.000000000E+00 0.170000005E+01 0.999999978E-02 0.000000000E+00 0.172000003E+01 0.999999978E-02 0.000000000E+00 0.174000001E+01 0.999999978E-02 0.000000000E+00 0.175999999E+01 0.999999978E-02 0.000000000E+00 0.177999997E+01 0.999999978E-02 0.000000000E+00 0.179999995E+01 0.999999978E-02 0.000000000E+00 0.182000005E+01 0.999999978E-02 0.000000000E+00 0.184000003E+01 0.999999978E-02 0.000000000E+00 0.186000001E+01 0.999999978E-02 0.000000000E+00 0.188000000E+01 0.999999978E-02 0.000000000E+00 0.189999998E+01 0.999999978E-02 0.000000000E+00 0.191999996E+01 0.999999978E-02 0.000000000E+00 0.194000006E+01 0.999999978E-02 0.000000000E+00 0.196000004E+01 0.999999978E-02 0.000000000E+00 0.198000002E+01 0.999999978E-02 0.000000000E+00 0.200000000E+01 0.999999978E-02 0.000000000E+00
[...]
<CellData Scalars="Temperature, U, V">
<DataArray type="Float32" Name="Temp, K"/>
0.000000000E+00 0.000000000E+00 0.000000000E+00 0.000000000E+00 0.000000000E+00 0.000000000E+00 0.000000000E+00 0.140129846E-42 0.482943503E-40 0.384223007E-38 0.107264779E-36 0.125283230E-35 0.682563451E-35 0.187792225E-34 0.281255161E-34 0.248889520E-34 0.141274490E-34 0.550689257E-35 0.155067589E-35 0.327063532E-36 0.530183908E-37 0.672865968E-38 0.677660931E-39 0.547235076E-40 0.356350199E-41 0.140129846E-42 0.000000000E+00 0.000000000E+00 0.000000000E+00 0.000000000E+00 0.000000000E+00 0.000000000E+00 0.000000000E+00 0.000000000E+00 0.000000000E+00 0.000000000E+00 0.000000000E+00 0.238220739E-43 0.980908925E-43 0.317149716E-38 0.368055069E-32 0.302957158E-26 0.134033117E-20 0.223853427E-18 0.333244107E-13 0.242297632E-11 0.843819181E-10 0.167154468E-08 0.186118783E-07 0.258352788E-07 0.318396665E-08 0.216505938E-09 0.882249048E-11 0.209228861E-12 0.232052998E-14 0.166172459E-19 0.875043770E-22 0.202398819E-27 0.251987395E-33 0.223273088E-39 0.770714155E-43 0.154142831E-43 0.000000000E+00 0.000000000E+00 0.000000000E+00 0.000000000E+00 0.000000000E+00 0.000000000E+00 0.000000000E+00 0.000000000E+00 0.000000000E+00 0.000000000E+00 0.000000000E+00 0.140129846E-42 0.307585013E-41 0.473162439E-40 0.584845927E-39 0.581379255E-38 0.459651624E-37 0.284946868E-36 0.135817793E-35 0.484264104E-35 0.124242664E-34 0.217166598E-34 0.240261675E-34 0.154325792E-34 0.530068385E-35 0.905415842E-36 0.712264483E-37 0.231882526E-38 0.262785501E-40 0.700649232E-43 0.000000000E+00 0.000000000E+00 0.000000000E+00 0.000000000E+00 0.000000000E+00 0.000000000E+00 0.000000000E+00 0.000000000E+00
0.000000000E+00 0.000000000E+00 0.000000000E+00 0.000000000E+00 0.000000000E+00 0.000000000E+00 0.418988241E-42 0.260690560E-39 0.361455606E-37 0.170461945E-35 0.331380898E-34 0.299103022E-33 0.135747428E-32 0.330896003E-32 0.463154435E-32 0.400193782E-32 0.229041548E-32 0.920618890E-33 0.271647676E-33 0.607744469E-34 0.105517493E-34 0.144566263E-35 0.158190342E-36 0.139478495E-37 0.997686672E-39 0.667452472E-40 0.412262008E-41 0.210194770E-42 0.000000000E+00 0.000000000E+00 0.000000000E+00 0.000000000E+00 0.000000000E+00 0.000000000E+00 0.000000000E+00 0.000000000E+00 0.126116862E-43 0.546506401E-43 0.547571388E-40 0.660222084E-34 0.614323624E-28 0.399006098E-22 0.140676191E-16 0.190297111E-14 0.183679989E-12 0.923605203E-11 0.277763590E-09 0.513567500E-08 0.555343505E-07 0.767374431E-07 0.950178158E-08 0.668897548E-09 0.294130033E-10 0.819644591E-12 0.138170750E-13 0.128289281E-15 0.821668901E-18 0.237264787E-23 0.373121317E-29 0.412341019E-35 0.355509420E-41 0.560519386E-43 0.980908925E-44 0.000000000E+00 0.000000000E+00 0.000000000E+00 0.000000000E+00 0.000000000E+00 0.000000000E+00 0.000000000E+00 0.000000000E+00 0.140129846E-42 0.370363184E-41 0.582898122E-40 0.863638460E-39 0.120226420E-37 0.136174620E-36 0.124615002E-35 0.912773301E-35 0.528351076E-34 0.237425500E-33 0.807928012E-33 0.201077272E-32 0.348882021E-32 0.396104091E-32 0.273089580E-32 0.106212931E-32 0.218325897E-33 0.222551559E-34 0.104048980E-35 0.198255945E-37 0.126991272E-39 0.210194770E-42 0.000000000E+00 0.000000000E+00 0.000000000E+00 0.000000000E+00 0.000000000E+00 0.000000000E+00 0.000000000E+00
0.000000000E+00 0.000000000E+00 0.000000000E+00 0.000000000E+00 0.000000000E+00 0.559118087E-42 0.613009224E-39 0.147632152E-36 0.116393757E-34 0.370289032E-33 0.542205953E-32 0.397526534E-31 0.155543117E-30 0.344077823E-30 0.457099536E-30 0.388825084E-30 0.225094402E-30 0.933110472E-31 0.288060357E-31 0.681806266E-32 0.126383753E-32 0.186307038E-33 0.220816643E-34 0.212074312E-35 0.165976102E-36 0.121552833E-37 0.830089974E-39 0.526972300E-40 0.307585013E-41 0.140129846E-42 0.000000000E+00 0.000000000E+00 0.000000000E+00 0.000000000E+00 0.000000000E+00 0.420389539E-44 0.546506401E-43 0.786128438E-42 0.890653914E-36 0.789227095E-30 0.469525376E-24 0.138333072E-18 0.671053382E-16 0.777250900E-14 0.555802529E-12 0.240120580E-10 0.664160726E-09 0.117259971E-07 0.124030478E-06 0.170311864E-06 0.211685727E-07 0.152651591E-08 0.704701436E-10 0.214401955E-11 0.424039228E-13 0.521085987E-15 0.391111260E-17 0.711783505E-20 0.248011582E-25 0.431716111E-31 0.508391868E-37 0.840779079E-43 0.280259693E-43 0.000000000E+00 0.000000000E+00 0.000000000E+00 0.000000000E+00 0.000000000E+00 0.000000000E+00 0.140129846E-42 0.279699173E-41 0.471060492E-40 0.730984541E-39 0.105798104E-37 0.143335087E-36 0.182388058E-35 0.189693794E-34 0.160292396E-33 0.109133447E-32 0.591710428E-32 0.251333652E-31 0.817485439E-31 0.197310935E-30 0.338682610E-30 0.391224691E-30 0.284945708E-30 0.122493999E-30 0.292818670E-31 0.368097607E-32 0.228647725E-33 0.645440960E-35 0.725883142E-37 0.263486150E-39 0.210194770E-42 0.000000000E+00 0.000000000E+00 0.000000000E+00 0.000000000E+00 0.000000000E+00 0.000000000E+00
0.000000000E+00 0.000000000E+00 0.000000000E+00 0.000000000E+00 0.348923318E-42 0.713021296E-39 0.298919047E-36 0.392276211E-34 0.202014269E-32 0.472402791E-31 0.549211555E-30 0.339087614E-29 0.117378810E-28 0.239971699E-28 0.306113384E-28 0.257912202E-28 0.151367877E-28 0.647076425E-29 0.208656736E-29 0.521136707E-30 0.102805527E-30 0.162484911E-31 0.207852821E-32 0.216733309E-33 0.185110227E-34 0.148059904E-35 0.110458820E-36 0.765845344E-38 0.491610534E-39 0.290054769E-40 0.153862571E-41 0.700649232E-43 0.000000000E+00 0.000000000E+00 0.000000000E+00 0.966895940E-43 0.350324616E-43 0.104901792E-37 0.903991890E-32 0.540354890E-26 0.166573223E-20 0.872648766E-18 0.213758135E-15 0.214328524E-13 0.132724973E-11 0.524946163E-10 0.137381384E-08 0.234535573E-07 0.243678272E-06 0.332304325E-06 0.414597316E-07 0.304433767E-08 0.145420828E-09 0.468225372E-11 0.101421001E-12 0.142963925E-14 0.124307726E-16 0.448282875E-19 0.764230333E-22 0.258542806E-27 0.454503008E-33 0.558480496E-39 0.504467447E-43 0.742688186E-43 0.000000000E+00 0.000000000E+00 0.000000000E+00 0.700649232E-43 0.146856079E-41 0.270478630E-40 0.446669491E-39 0.682899545E-38 0.970181817E-37 0.128574520E-35 0.159528531E-34 0.186054720E-33 0.178269008E-32 0.139592261E-31 0.886507234E-31 0.451651684E-30 0.181797292E-29 0.566081893E-29 0.132509623E-28 0.224471498E-28 0.262127552E-28 0.199282291E-28 0.929567993E-29 0.251833001E-29 0.376662432E-30 0.295002915E-31 0.113320163E-32 0.194893247E-34 0.129541490E-36 0.264604386E-39 0.700649232E-43 0.000000000E+00 0.000000000E+00 0.000000000E+00 0.000000000E+00 0.000000000E+00
0.000000000E+00 0.000000000E+00 0.000000000E+00 0.140129846E-42 0.438282719E-39 0.322661863E-36 0.706294116E-34 0.586066035E-32 0.216740258E-30 0.393997683E-29 0.377857675E-28 0.201946755E-27 0.631100280E-27 0.120963952E-26 0.149510028E-26 0.125353262E-26 0.747060762E-27 0.329218368E-27 0.110707557E-27 0.291029320E-28 0.609049465E-29 0.102832424E-29 0.141426970E-30 0.159492411E-31 0.148133098E-32 0.129036288E-33 0.104936719E-34 0.793409630E-36 0.555586703E-37 0.358852218E-38 0.212606404E-39 0.114626214E-40 0.559118087E-42 0.000000000E+00 0.882818033E-43 0.756701171E-43 0.109112105E-39 0.850612106E-34 0.469801841E-28 0.137570794E-22 0.112002799E-19 0.328236992E-17 0.559203687E-15 0.494929178E-13 0.278556908E-11 0.103585633E-09 0.260197353E-08 0.432519656E-07 0.442395446E-06 0.599118323E-06 0.750719380E-07 0.559517099E-08 0.274380685E-09 0.920700408E-11 0.212395382E-12 0.328682157E-14 0.324589213E-16 0.168554917E-18 0.514833194E-21 0.573803765E-24 0.207681132E-29 0.401835648E-35 0.552531984E-41 0.868805048E-43 0.868805048E-43 0.000000000E+00 0.559118087E-42 0.113224916E-40 0.202542279E-39 0.332790168E-38 0.503655367E-37 0.705842915E-36 0.919704943E-35 0.111841526E-33 0.127452672E-32 0.136725906E-31 0.121152149E-30 0.882492040E-30 0.524653710E-29 0.251962192E-28 0.963497131E-28 0.287672761E-27 0.653255937E-27 0.109019970E-26 0.128066638E-26 0.100678392E-26 0.502194948E-27 0.151091034E-27 0.261606136E-28 0.248716323E-29 0.122971979E-30 0.294471345E-32 0.309076638E-34 0.120598235E-36 0.136356150E-39 0.000000000E+00 0.000000000E+00 0.000000000E+00 0.000000000E+00 0.000000000E+00
0.000000000E+00 0.000000000E+00 0.000000000E+00 0.146979393E-39 0.193432863E-36 0.712818741E-34 0.954782062E-32 0.556289865E-30 0.156714906E-28 0.230637646E-27 0.187871712E-26 0.888258304E-26 0.254691555E-25 0.462939140E-25 0.558378120E-25 0.467572496E-25 0.283293695E-25 0.128637291E-25 0.450384033E-26 0.124317613E-26 0.275153133E-27 0.494530361E-28 0.728381138E-29 0.884759427E-30 0.889973767E-31 0.841204402E-32 0.743457060E-33 0.611534119E-34 0.466151669E-35 0.327942158E-36 0.211988670E-37 0.125187661E-38 0.669554419E-40 0.316833583E-41 0.187773994E-42 0.123034005E-41 0.781948668E-36 0.373501528E-30 0.954203747E-25 0.104701179E-21 0.449054706E-19 0.958388580E-17 0.129215787E-14 0.102889973E-12 0.538185078E-11 0.190712668E-09 0.463393990E-08 0.752916591E-07 0.758930810E-06 0.102089064E-05 0.128580623E-06 0.971189884E-08 0.486813700E-09 0.168837947E-10 0.409056903E-12 0.680816411E-14 0.749034875E-16 0.492373573E-18 0.206931266E-20 0.438776111E-23 0.372088702E-26 0.157299864E-31 0.359233343E-37 0.106498683E-42 0.176563607E-42 0.338553709E-41 0.680736781E-40 0.122706382E-38 0.201451998E-37 0.303415758E-36 0.421637605E-35 0.542938284E-34 0.650445702E-33 0.728031626E-32 0.764799429E-31 0.757718768E-30 0.623449478E-29 0.424090977E-28 0.236859507E-27 0.107549860E-26 0.391648139E-26 0.112300305E-25 0.247493399E-25 0.406386903E-25 0.478386207E-25 0.386005572E-25 0.203503696E-25 0.668956744E-26 0.131212423E-26 0.147099652E-27 0.899128369E-29 0.282674982E-30 0.422377455E-32 0.268822156E-34 0.605559641E-37 0.368331301E-40 0.000000000E+00 0.000000000E+00 0.000000000E+00 0.000000000E+00
0.000000000E+00 0.000000000E+00 0.269777980E-40 0.655813623E-37 0.414429717E-34 0.904281943E-32 0.832080729E-30 0.361995626E-28 0.811303285E-27 0.997127041E-26 0.705948111E-25 0.300479214E-24 0.800958975E-24 0.139341767E-23 0.164950332E-23 0.138347951E-23 0.852888899E-24 0.398828623E-24 0.145165000E-24 0.419775444E-25 0.979808462E-26 0.186827222E-26 0.293581635E-27 0.382541175E-28 0.414973091E-29 0.423855521E-30 0.405581756E-31 0.361784725E-32 0.299414528E-33 0.228873600E-34 0.160885314E-35 0.103504815E-36 0.605694446E-38 0.319665607E-39 0.150863793E-40 0.807940910E-38 0.325396048E-32 0.710504349E-27 0.841955879E-24 0.467525067E-21 0.139500702E-18 0.239943887E-16 0.273666117E-14 0.199194245E-12 0.980740836E-11 0.333712696E-09 0.787828380E-08 0.125381163E-06 0.124591679E-05 0.166523614E-05 0.211018275E-06 0.161427351E-07 0.825127244E-09 0.294389131E-10 0.743149520E-12 0.131438998E-13 0.158524850E-15 0.123411005E-17 0.644826910E-20 0.196994140E-22 0.330932789E-25 0.269007485E-28 0.136094948E-33 0.378496320E-39 0.165787621E-40 0.337230883E-39 0.613789607E-38 0.101222682E-36 0.152538024E-35 0.211298898E-34 0.270298268E-33 0.320672177E-32 0.354360942E-31 0.366440804E-30 0.356316713E-29 0.327412093E-28 0.251168757E-27 0.160151850E-26 0.843112965E-26 0.362992034E-25 0.126162734E-24 0.347940464E-24 0.744567697E-24 0.120179606E-23 0.141338345E-23 0.116358818E-23 0.642238928E-24 0.227621303E-24 0.497013832E-25 0.642173106E-26 0.470534537E-27 0.186029109E-28 0.372150462E-30 0.344568728E-32 0.130803033E-34 0.164913898E-37 0.510212771E-41 0.000000000E+00 0.000000000E+00 0.000000000E+00
0.000000000E+00 0.265546059E-41 0.125229476E-37 0.140158000E-34 0.507530045E-32 0.744668900E-30 0.501493530E-28 0.170712986E-26 0.314628174E-25 0.330876416E-24 0.207401235E-23 0.806179558E-23 0.201946704E-22 0.338798499E-22 0.395441583E-22 0.332956731E-22 0.208974949E-22 0.100576026E-22 0.380015124E-23 0.114880187E-23 0.282030469E-24 0.568736727E-25 0.950109698E-26 0.132280592E-26 0.154096989E-27 0.169357567E-28 0.174726402E-29 0.168369535E-30 0.150780469E-31 0.124878045E-32 0.952004119E-34 0.664902696E-35 0.423245677E-36 0.243946388E-37 0.136621696E-38 0.324943430E-34 0.585698693E-29 0.718276497E-26 0.428036440E-23 0.159933352E-20 0.370780091E-18 0.541604546E-16 0.543266477E-14 0.366029228E-12 0.171030204E-10 0.561416524E-09 0.129107631E-07 0.201477363E-06 0.197359486E-05 0.262179356E-05 0.334602476E-06 0.259232973E-07 0.134952038E-08 0.493932742E-10 0.129281037E-11 0.241067576E-13 0.314678696E-15 0.279055170E-17 0.172019592E-19 0.677983413E-22 0.169724521E-24 0.275178748E-27 0.225946636E-30 0.142171115E-35 0.139573531E-38 0.256802966E-37 0.427887764E-36 0.648760957E-35 0.900699989E-34 0.115073027E-32 0.135903780E-31 0.149048922E-30 0.152515229E-29 0.146317487E-28 0.132255957E-27 0.113186547E-26 0.812725565E-26 0.487484331E-25 0.242657707E-24 0.993224986E-24 0.330171401E-23 0.877044589E-23 0.182338430E-22 0.289112662E-22 0.338872872E-22 0.283269854E-22 0.162418935E-22 0.613877633E-23 0.147091241E-23 0.215041313E-24 0.184379288E-25 0.887070718E-27 0.226820636E-28 0.286746848E-30 0.161749970E-32 0.355036925E-35 0.236886423E-38 0.348923318E-42 0.000000000E+00 0.000000000E+00
0.140129846E-42 0.130121913E-38 0.273025280E-35 0.169518867E-32 0.404199939E-30 0.425330674E-28 0.220589525E-26 0.608732344E-25 0.946572640E-24 0.868435987E-23 0.489304640E-22 0.175767386E-21 0.417488491E-21 0.679637723E-21 0.785088762E-21 0.664809410E-21 0.424972572E-21 0.210377124E-21 0.824027504E-22 0.259910515E-22 0.669472250E-23 0.142363874E-23 0.251994442E-24 0.373486781E-25 0.465339534E-26 0.547965877E-27 0.606917581E-28 0.629121755E-29 0.607243266E-30 0.542999691E-31 0.447564184E-32 0.338349564E-33 0.233411321E-34 0.146107736E-35 0.575852326E-36 0.570012139E-31 0.679107935E-28 0.413401941E-25 0.164490515E-22 0.464261622E-20 0.886695017E-18 0.113497769E-15 0.102606666E-13 0.646124484E-12 0.288140033E-10 0.915182152E-09 0.205321893E-07 0.314333221E-06 0.303434990E-05 0.400772478E-05 0.515651777E-06 0.404704039E-07 0.214450413E-08 0.803875091E-10 0.217461986E-11 0.425120822E-13 0.594719038E-15 0.586179804E-17 0.413137134E-19 0.198130141E-21 0.658458697E-24 0.160393998E-26 0.266139783E-29 0.237328342E-32 0.114931339E-36 0.153436326E-35 0.235431946E-34 0.329443014E-33 0.422667471E-32 0.499603848E-31 0.546679258E-30 0.556447240E-29 0.529463480E-28 0.473267239E-27 0.399339494E-26 0.319590541E-25 0.215588610E-24 0.122048477E-23 0.576110089E-23 0.224732493E-22 0.715915190E-22 0.183416421E-21 0.370686118E-21 0.577109282E-21 0.672864122E-21 0.568851411E-21 0.336650190E-21 0.134456558E-21 0.349338438E-22 0.569216510E-23 0.560216622E-24 0.319739038E-25 0.100889522E-26 0.165592946E-28 0.130108193E-30 0.433301314E-33 0.519840521E-36 0.164382119E-39 0.000000000E+00 0.000000000E+00
0.670941705E-40 0.294751989E-36 0.332353120E-33 0.133100990E-30 0.222966113E-28 0.177941829E-26 0.738119276E-25 0.169664417E-23 0.227141422E-22 0.184687800E-21 0.947237720E-21 0.317612091E-20 0.720719237E-20 0.114436601E-19 0.131233957E-19 0.111924686E-19 0.728872297E-20 0.370894620E-20 0.150407143E-20 0.494079817E-21 0.133221530E-21 0.297937050E-22 0.557064423E-23 0.875889026E-24 0.116274227E-24 0.146108272E-25 0.172992921E-26 0.192067204E-27 0.198964558E-28 0.191319680E-29 0.169876907E-30 0.138553198E-31 0.103253211E-32 0.699310314E-34 0.149734140E-32 0.828318771E-30 0.447360256E-27 0.178347153E-24 0.531104643E-22 0.120516750E-19 0.196522066E-17 0.224996356E-15 0.186336322E-13 0.110475724E-11 0.472097327E-10 0.145371593E-08 0.318445501E-07 0.478317247E-06 0.454821929E-05 0.597436338E-05 0.775735145E-06 0.617040783E-07 0.332766681E-08 0.127633362E-09 0.356090808E-11 0.726846426E-13 0.108151920E-14 0.116556068E-16 0.920163210E-19 0.518115209E-21 0.214781423E-23 0.701322921E-26 0.178411048E-28 0.354074738E-31 0.762039238E-34 0.732576115E-34 0.103928376E-32 0.134660181E-31 0.160187307E-30 0.175827436E-29 0.178975616E-28 0.169795750E-27 0.150882504E-26 0.126192515E-25 0.998029901E-25 0.749753175E-24 0.476793763E-23 0.255542087E-22 0.114694153E-21 0.427360864E-21 0.130701837E-20 0.323376022E-20 0.635697106E-20 0.971482513E-20 0.112493865E-19 0.958725594E-20 0.582489763E-20 0.243953415E-20 0.680373775E-21 0.122009759E-21 0.135691901E-22 0.900454648E-24 0.341303845E-25 0.700480365E-27 0.725437023E-29 0.343410830E-31 0.638070043E-34 0.374574142E-37 0.426274993E-41 0.000000000E+00
0.160287413E-37 0.366930877E-34 0.261490393E-31 0.720522742E-29 0.901992438E-27 0.568385006E-25 0.194069131E-23 0.379489585E-22 0.444571512E-21 0.324605241E-20 0.153183865E-19 0.483529816E-19 0.105489852E-18 0.164076858E-18 0.187273044E-18 0.161049015E-18 0.106855592E-18 0.558570769E-19 0.234227564E-19 0.799971136E-20 0.225321616E-20 0.528632429E-21 0.104108201E-21 0.173098881E-22 0.243962414E-23 0.325879968E-24 0.410788131E-25 0.486421302E-26 0.538444609E-27 0.554373819E-28 0.528096649E-29 0.462940238E-30 0.371396676E-31 0.271151851E-32 0.214232244E-31 0.659659368E-29 0.220346800E-26 0.642669991E-24 0.152218966E-21 0.288609617E-19 0.411459448E-17 0.427377409E-15 0.327916202E-13 0.184068494E-11 0.755938923E-10 0.225963670E-08 0.483509268E-07 0.712449719E-06 0.666956839E-05 0.871523207E-05 0.114311206E-05 0.922058092E-07 0.506142817E-08 0.198539449E-09 0.570457613E-11 0.121212976E-12 0.190735938E-14 0.222218233E-16 0.193731929E-18 0.125075888E-20 0.622335839E-23 0.256353771E-25 0.895462151E-28 0.288928448E-30 0.123040408E-32 0.283473971E-32 0.373140904E-31 0.449261810E-30 0.497410115E-29 0.509085696E-28 0.484132469E-27 0.429952613E-26 0.358323395E-25 0.281551236E-24 0.209507927E-23 0.148265287E-22 0.891708551E-22 0.453751026E-21 0.194125436E-20 0.692379657E-20 0.203637488E-19 0.487146922E-19 0.932061169E-19 0.139793847E-18 0.160569845E-18 0.137578851E-18 0.854287321E-19 0.372736276E-19 0.110630528E-19 0.216008503E-20 0.267930586E-21 0.203413590E-22 0.906959792E-24 0.226211951E-25 0.296665867E-27 0.187832468E-29 0.506410901E-32 0.469833555E-35 0.101865570E-38 0.000000000E+00
0.206884746E-35 0.293355929E-32 0.140843398E-29 0.285911787E-27 0.279109003E-25 0.143170740E-23 0.411326717E-22 0.695733010E-21 0.722956986E-20 0.479387677E-19 0.210084023E-18 0.628846018E-18 0.132615509E-17 0.202789138E-17 0.230854322E-17 0.200365685E-17 0.135452066E-17 0.726887135E-18 0.314819642E-18 0.111612721E-18 0.327747086E-19 0.804797057E-20 0.166501794E-20 0.291878333E-21 0.435300705E-22 0.615902008E-23 0.823393489E-24 0.103561117E-24 0.121976577E-25 0.133881126E-26 0.136232328E-27 0.127821984E-28 0.109962945E-29 0.862914005E-31 0.177408017E-30 0.383019649E-28 0.904119955E-26 0.204736404E-23 0.400265953E-21 0.650645406E-19 0.824578220E-17 0.785023359E-15 0.562531860E-13 0.300218921E-11 0.118742141E-09 0.344840489E-08 0.720864506E-07 0.104170840E-05 0.959517092E-05 0.124756871E-04 0.165453696E-05 0.135423917E-06 0.756881491E-08 0.303578773E-09 0.897468991E-11 0.198071350E-12 0.328167732E-14 0.409982972E-16 0.390684641E-18 0.284442310E-20 0.165564044E-22 0.829150250E-25 0.374831780E-27 0.171791296E-29 0.151870579E-31 0.899900817E-31 0.110312716E-29 0.123903830E-28 0.128216908E-27 0.122891664E-26 0.109661010E-25 0.915544633E-25 0.718530751E-24 0.532453106E-23 0.374118767E-22 0.250233747E-21 0.142754965E-20 0.691506998E-20 0.282651170E-19 0.966883146E-19 0.273907082E-18 0.634282404E-18 0.118189758E-17 0.173961315E-17 0.198004663E-17 0.170180634E-17 0.107589201E-17 0.486321299E-18 0.152476645E-18 0.321156201E-19 0.439326448E-20 0.376479765E-21 0.194213768E-22 0.575941874E-24 0.927976988E-26 0.753206405E-28 0.275475455E-30 0.378654350E-33 0.132359052E-36 0.000000000E+00