<?xml version="1.0"?>
<VTKFile type="StructuredGrid">
<StructuredGrid WholeExtent="     0   100     0   100     0     0">
<Piece Extent="     0   100     0   100     0     0">
<Points>
<DataArray type="Float32" NumberOfComponents="3"/>
0.000000000E+00 0.000000000E+00 0.000000000E+00 0.199999996E-01 0.000000000E+00 0.000000000E+00 0.399999991E-01 0.000000000E+00 0.000000000E+00 0.599999987E-01 0.000000000E+00 0.000000000E+00 0.799999982E-01 0.000000000E+00 0.000000000E+00 0.100000001E+00 0.000000000E+00 0.000000000E+00 0.119999997E+00 0.000000000E+00 0.000000000E+00 0.140000001E+00 0.000000000E+00 0.000000000E+00 0.159999996E+00 0.000000000E+00 0.000000000E+00 0.180000007E+00 0.000000000E+00 0.000000000E+00 0.200000003E+00 0.000000000E+00 0.000000000E+00 0.219999999E+00 0.000000000E+00 0.000000000E+00 0.239999995E+00 0.000000000E+00 0.000000000E+00 0.259999990E+00 0.000000000E+00 0.000000000E+00 0.280000001E+00 0.000000000E+00 0.000000000E+00 0.300000012E+00 0.000000000E+00 0.000000000E+00 0.319999993E+00 0.000000000E+00 0.000000000E+00 0.340000004E+00 0.000000000E+00 0.000000000E+00 0.360000014E+00 0.000000000E+00 0.000000000E+00 0.379999995E+00 0.000000000E+00 0.000000000E+00 0.400000006E+00 0.000000000E+00 0.000000000E+00 0.419999987E+00 0.000000000E+00 0.000000000E+00 0.439999998E+00 0.000000000E+00 0.000000000E+00 0.460000008E+00 0.000000000E+00 0.000000000E+00 0.479999989E+00 0.000000000E+00 0.000000000E+00 0.500000000E+00 0.000000000E+00 0.000000000E+00 0.519999981E+00 0.000000000E+00 0.000000000E+00 0.540000021E+00 0.000000000E+00 0.000000000E+00 0.560000002E+00 0.000000000E+00 0.000000000E+00 0.579999983E+00 0.000000000E+00 0.000000000E+00 0.600000024E+00 0.000000000E+00 0.000000000E+00 0.620000005E+00 0.000000000E+00 0.000000000E+00 0.639999986E+00 0.000000000E+00 0.000000000E+00 0.660000026E+00 0.000000000E+00 0.000000000E+00 0.680000007E+00 0.000000000E+00 0.000000000E+00 0.699999988E+00 0.000000000E+00 0.000000000E+00 0.720000029E+00 0.000000000E+00 0.000000000E+00 0.740000010E+00 0.000000000E+00 0.000000000E+00 0.759999990E+00 0.000000000E+00 0.000000000E+00 0.779999971E+00 0.000000000E+00 0.000000000E+00 0.800000012E+00 0.000000000E+00 0.000000000E+00 0.819999993E+00 0.000000000E+00 0.000000000E+00 0.839999974E+00 0.000000000E+00 0.000000000E+00 0.860000014E+00 0.000000000E+00 0.000000000E+00 0.879999995E+00 0.000000000E+00 0.000000000E+00 0.899999976E+00 0.000000000E+00 0.000000000E+00 0.920000017E+00 0.000000000E+00 0.000000000E+00 0.939999998E+00 0.000000000E+00 0.000000000E+00 0.959999979E+00 0.000000000E+00 0.000000000E+00 0.980000019E+00 0.000000000E+00 0.000000000E+00 0.100000000E+01 0.000000000E+00 0.000000000E+00 0.101999998E+01 0.000000000E+00 0.000000000E+00 0.103999996E+01 0.000000000E+00 0.000000000E+00 0.105999994E+01 0.000000000E+00 0.000000000E+00 0.108000004E+01 0.000000000E+00 0.000000000E+00 0.110000002E+01 0.000000000E+00 0.000000000E+00 0.112000000E+01 0.000000000E+00 0.000000000E+00 0.113999999E+01 0.000000000E+00 0.000000000E+00 0.115999997E+01 0.000000000E+00 0.000000000E+00 0.117999995E+01 0.000000000E+00 0.000000000E+00 0.120000005E+01 0.000000000E+00 0.000000000E+00 0.122000003E+01 0.000000000E+00 0.000000000E+00 0.124000001E+01 0.000000000E+00 0.000000000E+00 0.125999999E+01 0.000000000E+00 0.000000000E+00 0.127999997E+01 0.000000000E+00 0.000000000E+00 0.129999995E+01 0.000000000E+00 0.000000000E+00 0.132000005E+01 0.000000000E+00 0.000000000E+00 0.134000003E+01 0.000000000E+00 0.000000000E+00 0.136000001E+01 0.000000000E+00 0.000000000E+00 0.138000000E+01 0.000000000E+00 0.000000000E+00 0.139999998E+01 0.000000000E+00 0.000000000E+00 0.141999996E+01 0.000000000E+00 0.000000000E+00 0.144000006E+01 0.000000000E+00 0.000000000E+00 0.146000004E+01 0.000000000E+00 0.000000000E+00 0.148000002E+01 0.000000000E+00 0.000000000E+00 0.150000000E+01 0.000000000E+00 0.000000000E+00 0.151999998E+01 0.000000000E+00 0.000000000E+00 0.153999996E+01 0.000000000E+00 0.000000000E+00 0.155999994E+01 0.000000000E+00 0.000000000E+00 0.158000004E+01 0.000000000E+00 0.000000000E+00 0.160000002E+01 0.000000000E+00 0.000000000E+00 0.162000000E+01 0.000000000E+00 0.000000000E+00 0.163999999E+01 0.000000000E+00 0.000000000E+00 0.165999997E+01 0.000000000E+00 0.000000000E+00 0.167999995E+01 0.000000000E+00 0.000000000E+00 0.170000005E+01 0.000000000E+00 0.000000000E+00 0.172000003E+01 0.000000000E+00 0.000000000E+00 0.174000001E+01 0.000000000E+00 0.000000000E+00 0.175999999E+01 0.000000000E+00 0.000000000E+00 0.177999997E+01 0.000000000E+00 0.000000000E+00 0.179999995E+01 0.000000000E+00 0.000000000E+00 0.182000005E+01 0.000000000E+00 0.000000000E+00 0.184000003E+01 0.000000000E+00 0.000000000E+00 0.186000001E+01 0.000000000E+00 0.000000000E+00 0.188000000E+01 0.000000000E+00 0.000000000E+00 0.189999998E+01 0.000000000E+00 0.000000000E+00 0.191999996E+01 0.000000000E+00 0.000000000E+00 0.194000006E+01 0.000000000E+00 0.000000000E+00 0.196000004E+01 0.000000000E+00 0.000000000E+00 0.198000002E+01 0.000000000E+00 0.000000000E+00 0.200000000E+01 0.000000000E+00 0.000000000E+00
0.000000000E+00 0.999999978E-02 0.000000000E+00 0.199999996E-01 0.999999978E-02 0.000000000E+00 0.399999991E-01 0.999999978E-02 0.000000000E+00 0.599999987E-01 0.999999978E-02 0.000000000E+00 0.799999982E-01 0.999999978E-02 0.000000000E+00 0.100000001E+00 0.999999978E-02 0.000000000E+00 0.119999997E+00 0.999999978E-02 0.000000000E+00 0.140000001E+00 0.999999978E-02 0.000000000E+00 0.159999996E+00 0.999999978E-02 0.000000000E+00 0.180000007E+00 0.999999978E-02 0.000000000E+00 0.200000003E+00 0.999999978E-02 0.000000000E+00 0.219999999E+00 0.999999978E-02 0.000000000E+00 0.239999995E+00 0.999999978E-02 0.000000000E+00 0.259999990E+00 0.999999978E-02 0.000000000E+00 0.280000001E+00 0.999999978E-02 0.000000000E+00 0.300000012E+00 0.999999978E-02 0.000000000E+00 0.319999993E+00 0.999999978E-02 0.000000000E+00 0.340000004E+00 0.999999978E-02 0.000000000E+00 0.360000014E+00 0.999999978E-02 0.000000000E+00 0.379999995E+00 0.999999978E-02 0.000000000E+00 0.400000006E+00 0.999999978E-02 0.000000000E+00 0.419999987E+00 0.999999978E-02 0.000000000E+00 0.439999998E+00 0.999999978E-02 0.000000000E+00 0.460000008E+00 0.999999978E-02 0.000000000E+00 0.479999989E+00 0.999999978E-02 0.000000000E+00 0.500000000E+00 0.999999978E-02 0.000000000E+00 0.519999981E+00 0.999999978E-02 0.000000000E+00 0.540000021E+00 0.999999978E-02 0.000000000E+00 0.560000002E+00 0.999999978E-02 0.000000000E+00 0.579999983E+00 0.999999978E-02 0.000000000E+00 0.600000024E+00 0.999999978E-02 0.000000000E+00 0.620000005E+00 0.999999978E-02 0.000000000E+00 0.639999986E+00 0.999999978E-02 0.000000000E+00 0.660000026E+00 0.999999978E-02 0.000000000E+00 0.680000007E+00 0.999999978E-02 0.000000000E+00 0.699999988E+00 0.999999978E-02 0.000000000E+00 0.720000029E+00 0.999999978E-02 0.000000000E+00 0.740000010E+00 0.999999978E-02 0.000000000E+00 0.759999990E+00 0.999999978E-02 0.000000000E+00 0.779999971E+00 0.999999978E-02 0.000000000E+00 0.800000012E+00 0.999999978E-02 0.000000000E+00 0.819999993E+00 0.999999978E-02 0.000000000E+00 0.839999974E+00 0.999999978E-02 0.000000000E+00 0.860000014E+00 0.999999978E-02 0.000000000E+00 0.879999995E+00 0.999999978E-02 0.000000000E+00 0.899999976E+00 0.999999978E-02 0.000000000E+00 0.920000017E+00 0.999999978E-02 0.000000000E+00 0.939999998E+00 0.999999978E-02 0.000000000E+00 0.959999979E+00 0.999999978E-02 0.000000000E+00 0.980000019E+00 0.999999978E-02 0.000000000E+00 0.100000000E+01 0.999999978E-02 0.000000000E+00 0.101999998E+01 0.999999978E-02 0.000000000E+00 0.103999996E+01 0.999999978E-02 0.000000000E+00 0.105999994E+01 0.999999978E-02 0.000000000E+00 0.108000004E+01 0.999999978E-02 0.000000000E+00 0.110000002E+01 0.999999978E-02 0.000000000E+00 0.112000000E+01 0.999999978E-02 0.000000000E+00 0.113999999E+01 0.999999978E-02 0.000000000E+00 0.115999997E+01 0.999999978E-02 0.000000000E+00 0.117999995E+01 0.999999978E-02 0.000000000E+00 0.120000005E+01 0.999999978E-02 0.000000000E+00 0.122000003E+01 0.999999978E-02 0.000000000E+00 0.124000001E+01 0.999999978E-02 0.000000000E+00 0.125999999E+01 0.999999978E-02 0.000000000E+00 0.127999997E+01 0.999999978E-02 0.000000000E+00 0.129999995E+01 0.999999978E-02 0.000000000E+00 0.132000005E+01 0.999999978E-02 0.000000000E+00 0.134000003E+01 0.999999978E-02 0.000000000E+00 0.136000001E+01 0.999999978E-02 0.000000000E+00 0.138000000E+01 0.999999978E-02 0.000000000E+00 0.139999998E+01 0.999999978E-02 0.000000000E+00 0.141999996E+01 0.999999978E-02 0.000000000E+00 0.144000006E+01 0.999999978E-02 0.000000000E+00 0.146000004E+01 0.999999978E-02 0.000000000E+00 0.148000002E+01 0.999999978E-02 0.000000000E+00 0.150000000E+01 0.999999978E-02 0.000000000E+00 0.151999998E+01 0.999999978E-02 0.000000000E+00 0.153999996E+01 0.999999978E-02 0.000000000E+00 0.155999994E+01 0.999999978E-02 0.000000000E+00 0.158000004E+01 0.999999978E-02 0.000000000E+00 0.160000002E+01 0.999999978E-02 0.000000000E+00 0.162000000E+01 0.999999978E-02 0.000000000E+00 0.163999999E+01 0.999999978E-02 0.000000000E+00 0.165999997E+01 0.999999978E-02 0.000000000E+00 0.167999995E+01 0.999999978E-02 0.000000000E+00 0.170000005E+01 0.999999978E-02 0.000000000E+00 0.172000003E+01 0.999999978E-02 0.000000000E+00 0.174000001E+01 0.999999978E-02 0.000000000E+00 0.175999999E+01 0.999999978E-02 0.000000000E+00 0.177999997E+01 0.999999978E-02 0.000000000E+00 0.179999995E+01 0.999999978E-02 0.000000000E+00 0.182000005E+01 0.999999978E-02 0.000000000E+00 0.184000003E+01 0.999999978E-02 0.000000000E+00 0.186000001E+01 0.999999978E-02 0.000000000E+00 0.188000000E+01 0.999999978E-02 0.000000000E+00 0.189999998E+01 0.999999978E-02 0.000000000E+00 0.191999996E+01 0.999999978E-02 0.000000000E+00 0.194000006E+01 0.999999978E-02 0.000000000E+00 0.196000004E+01 0.999999978E-02 0.000000000E+00 0.198000002E+01 0.999999978E-02 0.000000000E+00 0.200000000E+01 0.999999978E-02 0.000000000E+00
[...]
<CellData Scalars="Temperature, U, V">
<DataArray type="Float32" Name="Temp, K"/>
0.576456353E-39 0.308501014E-36 0.652142570E-34 0.635770675E-32 0.313722750E-30 0.836779622E-29 0.127029548E-27 0.114757759E-26 0.643419028E-26 0.233511718E-25 0.572547973E-25 0.989398469E-25 0.125350639E-24 0.120537959E-24 0.905654597E-25 0.544356672E-25 0.266729711E-25 0.108143085E-25 0.367060870E-26 0.105249857E-26 0.256711776E-27 0.535342561E-28 0.957957404E-29 0.147432899E-29 0.195383912E-30 0.247284338E-31 0.297429440E-32 0.338219388E-33 0.361621953E-34 0.361429465E-35 0.335604256E-36 0.287636520E-37 0.226012627E-38 0.161656593E-39 0.104144502E-40 0.629183010E-42 0.000000000E+00 0.238220739E-43 0.980908925E-43 0.529074248E-40 0.687257881E-34 0.622746198E-28 0.295319168E-22 0.957911742E-20 0.194931567E-14 0.238080118E-12 0.136827138E-10 0.440243647E-09 0.780073339E-08 0.109455698E-07 0.845145121E-09 0.352644962E-10 0.868675466E-12 0.122912917E-13 0.802667214E-16 0.415500713E-21 0.112115535E-23 0.242411818E-29 0.274879101E-35 0.219163080E-41 0.770714155E-43 0.154142831E-43 0.000000000E+00 0.699247934E-42 0.108334384E-40 0.159561652E-39 0.214054086E-38 0.262805063E-37 0.297257219E-36 0.311767519E-35 0.305092298E-34 0.280227614E-33 0.242949538E-32 0.199878679E-31 0.156842391E-30 0.117951774E-29 0.765948583E-29 0.428841404E-28 0.206454249E-27 0.851154146E-27 0.298791776E-26 0.886280374E-26 0.219908120E-25 0.450527338E-25 0.749487255E-25 0.991229920E-25 0.101489532E-24 0.778709190E-25 0.430888091E-25 0.164753492E-25 0.416329547E-26 0.665317988E-27 0.643882075E-28 0.360917127E-29 0.111452499E-30 0.178104971E-32 0.134857413E-34 0.418284257E-37 0.383703546E-40 0.000000000E+00
0.148342229E-36 0.618863739E-34 0.105640105E-31 0.854001160E-30 0.357647267E-28 0.827062496E-27 0.111104225E-25 0.906465460E-25 0.468551527E-24 0.160027396E-23 0.376581291E-23 0.635748802E-23 0.798886302E-23 0.771481195E-23 0.587981104E-23 0.361411536E-23 0.182301002E-23 0.765117375E-24 0.270118990E-24 0.809033434E-25 0.206918524E-25 0.454122802E-26 0.858220865E-27 0.139978538E-27 0.197279956E-28 0.265824054E-29 0.340858144E-30 0.413888916E-31 0.473429138E-32 0.507305617E-33 0.506233415E-34 0.467470118E-35 0.396795350E-36 0.307410663E-37 0.215773059E-38 0.136145955E-39 0.770013506E-41 0.404975256E-42 0.449816807E-42 0.536152622E-36 0.582860175E-30 0.442574634E-24 0.177834952E-18 0.408059049E-16 0.814605646E-14 0.743087124E-12 0.383350192E-10 0.117488386E-08 0.204151416E-07 0.285315362E-07 0.220648477E-08 0.942078845E-10 0.244732901E-11 0.389659618E-13 0.354163798E-15 0.158279480E-17 0.593310966E-20 0.150757744E-25 0.203355453E-31 0.192552576E-37 0.165353219E-42 0.475040179E-42 0.888563356E-41 0.147886033E-39 0.222454590E-38 0.302542132E-37 0.374911575E-36 0.426276553E-35 0.447688659E-34 0.437071850E-33 0.399067842E-32 0.342716348E-31 0.278325230E-30 0.214834570E-29 0.158371236E-28 0.112009401E-27 0.686410147E-27 0.363915287E-26 0.166475813E-25 0.654513209E-25 0.219949359E-24 0.627180658E-24 0.150313550E-23 0.299112823E-23 0.486582738E-23 0.634534350E-23 0.647305969E-23 0.501317358E-23 0.284456754E-23 0.113591592E-23 0.305797838E-24 0.531302565E-25 0.570369854E-26 0.361714416E-27 0.128907336E-28 0.242738243E-30 0.221575561E-32 0.850680667E-35 0.100135023E-37 0.000000000E+00
0.211817022E-34 0.708185241E-32 0.994761624E-30 0.677213362E-28 0.243883051E-26 0.494549628E-25 0.593824463E-24 0.441494801E-23 0.212063987E-22 0.686143264E-22 0.155769282E-21 0.257838139E-21 0.322075348E-21 0.312693583E-21 0.241803159E-21 0.151930723E-21 0.788220035E-22 0.342017303E-22 0.125394087E-22 0.391574224E-23 0.104796828E-23 0.241492337E-24 0.480768259E-25 0.828722108E-26 0.123837064E-26 0.177076632E-27 0.241226592E-28 0.311613020E-29 0.379818705E-30 0.434514522E-31 0.463908809E-32 0.459426171E-33 0.419293698E-34 0.350194863E-35 0.265684328E-36 0.181666981E-37 0.111033425E-38 0.601871703E-40 0.264987221E-38 0.263067719E-32 0.178317482E-26 0.613807193E-21 0.724809722E-18 0.149510831E-15 0.209259913E-13 0.164883732E-11 0.791806135E-10 0.233971842E-08 0.400146121E-07 0.556589299E-07 0.430971081E-08 0.187297650E-09 0.505788553E-11 0.868782517E-13 0.923374968E-15 0.576496538E-17 0.240455539E-19 0.175991208E-22 0.526332459E-28 0.805217992E-34 0.883700851E-40 0.738946719E-40 0.127580798E-38 0.196759779E-37 0.273112645E-36 0.343800099E-35 0.395368313E-34 0.418266512E-33 0.409752535E-32 0.374024582E-31 0.319973771E-30 0.257947960E-29 0.196958416E-28 0.143130732E-27 0.994451327E-27 0.663445272E-26 0.384743888E-25 0.193647689E-24 0.843710108E-24 0.316993401E-23 0.102164264E-22 0.280491296E-22 0.650137569E-22 0.125769243E-21 0.200138833E-21 0.257266524E-21 0.261167132E-21 0.203671352E-21 0.118054751E-21 0.489717435E-22 0.139503377E-22 0.261441422E-23 0.308584070E-24 0.219231934E-25 0.891651446E-27 0.195299483E-28 0.211651143E-30 0.986934220E-33 0.144854594E-35 0.285864887E-42
0.193095206E-32 0.526929449E-30 0.618445536E-28 0.359170604E-26 0.112442779E-24 0.201833889E-23 0.218454975E-22 0.149134293E-21 0.670121511E-21 0.206548493E-20 0.454299669E-20 0.739498094E-20 0.919934136E-20 0.898759928E-20 0.705336020E-20 0.452900167E-20 0.241503478E-20 0.108231070E-20 0.411560952E-21 0.133797310E-21 0.374059666E-22 0.903331801E-23 0.189046690E-23 0.343594432E-24 0.543009939E-25 0.821720275E-26 0.118571360E-26 0.162425059E-27 0.210230796E-28 0.255810554E-29 0.291048405E-30 0.307821886E-31 0.300734930E-32 0.269565421E-33 0.220067767E-34 0.162345248E-35 0.107312199E-36 0.631107974E-38 0.114381677E-34 0.753034696E-29 0.258188218E-23 0.331859853E-20 0.197531206E-17 0.368038754E-15 0.436724733E-13 0.314159961E-11 0.143290463E-09 0.411463885E-08 0.694265267E-07 0.960797664E-07 0.744965023E-08 0.328412797E-09 0.913565924E-11 0.165546979E-12 0.193474840E-14 0.141134946E-16 0.651885919E-19 0.946761576E-22 0.645354657E-25 0.196770572E-30 0.315008307E-36 0.770720461E-38 0.122872127E-36 0.175298483E-35 0.225639843E-34 0.264083393E-33 0.283096068E-32 0.279882384E-31 0.256832985E-30 0.220066686E-29 0.177053403E-28 0.134448507E-27 0.968321754E-27 0.664472948E-26 0.436314899E-25 0.275274443E-24 0.151417946E-23 0.725036299E-23 0.301440002E-22 0.108414833E-21 0.335606319E-21 0.888273939E-21 0.199315833E-20 0.375085655E-20 0.584022955E-20 0.739785588E-20 0.746578970E-20 0.585104833E-20 0.345354126E-20 0.148158741E-20 0.444075476E-21 0.891715493E-22 0.114854338E-22 0.906559347E-24 0.416909599E-25 0.105085710E-26 0.133494465E-28 0.744692422E-31 0.133789601E-33 0.310569779E-40
0.121689291E-30 0.275377438E-28 0.273730690E-26 0.137124955E-24 0.376708101E-23 0.603604179E-22 0.593435648E-21 0.374586600E-20 0.158412535E-19 0.467446647E-19 0.999852110E-19 0.160465310E-18 0.199109909E-18 0.195901650E-18 0.156050505E-18 0.102366186E-18 0.560662244E-19 0.259260424E-19 0.102127854E-19 0.345154237E-20 0.100637608E-20 0.254232199E-21 0.558179549E-22 0.106734663E-22 0.177972424E-23 0.284285404E-24 0.433302344E-25 0.627536462E-26 0.859714712E-27 0.110879988E-27 0.133934043E-28 0.150675148E-29 0.156918633E-30 0.150290567E-31 0.131433217E-32 0.104139490E-33 0.741291892E-35 0.510085421E-36 0.239671617E-31 0.755859248E-26 0.157763724E-22 0.110179246E-19 0.447643719E-17 0.759159579E-15 0.811941118E-13 0.547698345E-11 0.240113929E-09 0.673484779E-08 0.112279658E-06 0.154579951E-06 0.120070061E-07 0.535766154E-09 0.152632542E-10 0.288033947E-12 0.359679920E-14 0.289707006E-16 0.147077663E-18 0.313382959E-21 0.394255473E-24 0.168603045E-27 0.567899963E-33 0.573632535E-36 0.846086094E-35 0.112145766E-33 0.134460914E-32 0.146971236E-31 0.147512245E-30 0.136863503E-29 0.118113492E-28 0.953569082E-28 0.724024666E-27 0.519575339E-26 0.354030575E-25 0.230042884E-24 0.143127994E-23 0.855992889E-23 0.447586425E-22 0.204300636E-21 0.812005352E-21 0.280016208E-20 0.833751609E-20 0.212997634E-19 0.463122463E-19 0.848381510E-19 0.129287787E-18 0.161350044E-18 0.161734593E-18 0.127164983E-18 0.762216820E-19 0.336846137E-19 0.105691323E-19 0.226019327E-20 0.315501398E-21 0.274593141E-22 0.141612050E-23 0.406973988E-25 0.599429854E-27 0.394745523E-29 0.854553463E-32 0.225441037E-38
0.559636460E-29 0.106529830E-26 0.907010514E-25 0.395602108E-23 0.961651610E-22 0.138605320E-20 0.124659923E-19 0.732209745E-19 0.293033643E-18 0.831494411E-18 0.173533145E-17 0.275203135E-17 0.341066729E-17 0.338153337E-17 0.273430383E-17 0.183177037E-17 0.102978010E-17 0.490879478E-18 0.200078395E-18 0.701988572E-19 0.213135880E-19 0.562264955E-20 0.129265298E-20 0.259518905E-21 0.455538932E-22 0.766227224E-23 0.123037018E-23 0.187858424E-24 0.271578648E-25 0.370039474E-26 0.472878105E-27 0.563743107E-28 0.623335652E-29 0.635211851E-30 0.592458733E-31 0.501921798E-32 0.383020715E-33 0.974744367E-34 0.192495795E-28 0.538219889E-25 0.579879850E-22 0.289028247E-19 0.908964042E-17 0.141495784E-14 0.140233501E-12 0.900199793E-11 0.382152504E-09 0.105046611E-07 0.173177199E-06 0.237196275E-06 0.184688425E-07 0.833062841E-09 0.242143024E-10 0.472106187E-12 0.620217599E-14 0.537742407E-16 0.297620386E-18 0.820775264E-21 0.145034326E-23 0.120402900E-26 0.396216828E-30 0.332871990E-34 0.435928407E-33 0.539235552E-32 0.604953415E-31 0.620267368E-30 0.585341832E-29 0.511709295E-28 0.416873025E-27 0.318222580E-26 0.228773068E-25 0.155620132E-24 0.100603924E-23 0.620630874E-23 0.366774220E-22 0.208401956E-21 0.103801605E-20 0.452514324E-20 0.172234416E-19 0.570367916E-19 0.163574152E-18 0.403813316E-18 0.851597795E-18 0.151958290E-17 0.226723795E-17 0.278735299E-17 0.277322351E-17 0.218434825E-17 0.132637977E-17 0.601723593E-18 0.196740398E-18 0.445579287E-19 0.669827353E-20 0.638362198E-21 0.366415730E-22 0.119082113E-23 0.201486030E-25 0.154890845E-27 0.398401131E-30 0.118018399E-36
0.195646304E-27 0.316897567E-25 0.233247631E-23 0.893042673E-22 0.193556790E-20 0.252743582E-19 0.209317214E-18 0.115077098E-17 0.438003343E-17 0.119988305E-16 0.245045424E-16 0.384759654E-16 0.476809040E-16 0.476610848E-16 0.391204615E-16 0.267544737E-16 0.154277754E-16 0.757404206E-17 0.319064262E-17 0.116063800E-17 0.366401177E-18 0.100771847E-18 0.242154491E-19 0.509425723E-20 0.939336489E-21 0.165991152E-21 0.280110623E-22 0.449691263E-23 0.684045746E-24 0.981645815E-25 0.132277136E-25 0.166517752E-26 0.194745149E-27 0.210308511E-28 0.208315410E-29 0.187866484E-30 0.152999950E-31 0.569826940E-31 0.161006925E-27 0.225555572E-24 0.166197253E-21 0.657780033E-19 0.171382889E-16 0.246861760E-14 0.230152594E-12 0.141838884E-10 0.585814786E-09 0.158145212E-07 0.257903451E-06 0.351474398E-06 0.274536820E-07 0.125095923E-08 0.370098778E-10 0.741776486E-12 0.101582595E-13 0.935065412E-16 0.559789982E-18 0.186712294E-20 0.416380783E-23 0.506560174E-26 0.333316708E-29 0.246068143E-32 0.173695806E-31 0.201421991E-30 0.212370320E-29 0.205119920E-28 0.182732209E-27 0.151085294E-26 0.116602093E-25 0.844386852E-25 0.576532978E-24 0.372816098E-23 0.229275890E-22 0.134618230E-21 0.757389167E-21 0.409738423E-20 0.194787286E-19 0.812476960E-19 0.296629630E-18 0.944727837E-18 0.261302716E-17 0.624062153E-17 0.127765135E-16 0.222221062E-16 0.324726227E-16 0.393256056E-16 0.388132863E-16 0.305877825E-16 0.187766326E-16 0.871731320E-17 0.295787607E-17 0.705887966E-18 0.113608992E-18 0.117793064E-19 0.747290687E-21 0.272599027E-22 0.525578677E-24 0.467326862E-26 0.141189458E-28 0.463818581E-35
0.536300731E-26 0.745865176E-24 0.478406084E-22 0.162006766E-20 0.315317114E-19 0.375518336E-18 0.288129031E-17 0.149068187E-16 0.542048941E-16 0.143864801E-15 0.288243962E-15 0.448857688E-15 0.556736969E-15 0.561283206E-15 0.467630532E-15 0.326352477E-15 0.192899750E-15 0.974442981E-16 0.423793943E-16 0.159628438E-16 0.523218290E-17 0.149787861E-17 0.375570604E-18 0.826353949E-19 0.159738674E-19 0.295908415E-20 0.523539190E-21 0.881515585E-22 0.140712449E-22 0.212060977E-23 0.300379251E-24 0.397964026E-25 0.490533625E-26 0.559246193E-27 0.585924283E-28 0.560111548E-29 0.484856907E-30 0.580318380E-30 0.778465265E-27 0.725673837E-24 0.409532961E-21 0.136087496E-18 0.306214719E-16 0.411082538E-14 0.363854969E-12 0.216478103E-10 0.872502903E-09 0.231619577E-07 0.373669849E-06 0.506775564E-06 0.397422220E-07 0.182889892E-08 0.549914454E-10 0.112934336E-11 0.160288415E-13 0.155326903E-15 0.998756380E-18 0.386502241E-20 0.102857972E-22 0.163742379E-25 0.162310274E-28 0.563374240E-31 0.549033397E-30 0.599493505E-29 0.596560953E-28 0.544969948E-27 0.460047387E-26 0.361033102E-25 0.264837197E-24 0.182503385E-23 0.118691925E-22 0.731603740E-22 0.429091309E-21 0.240349343E-20 0.129020263E-19 0.665905984E-19 0.302716051E-18 0.121020928E-17 0.424489900E-17 0.130208163E-16 0.347780148E-16 0.804419183E-16 0.160024892E-15 0.271476707E-15 0.388678114E-15 0.463681505E-15 0.453775720E-15 0.357420031E-15 0.221400860E-15 0.104904772E-15 0.368034955E-16 0.921221536E-17 0.157881265E-17 0.177016586E-18 0.123310213E-19 0.501375505E-21 0.109340342E-22 0.111562361E-24 0.392319272E-27 0.141449508E-33
0.118023341E-24 0.142037467E-22 0.799858308E-21 0.241287001E-19 0.424581805E-18 0.464067928E-17 0.331765997E-16 0.162325884E-15 0.566207326E-15 0.146054050E-14 0.287736309E-14 0.445022090E-14 0.552915029E-14 0.562375963E-14 0.475529633E-14 0.338505685E-14 0.204952031E-14 0.106436519E-14 0.477389146E-15 0.185964853E-15 0.632000862E-16 0.188045384E-16 0.491155694E-17 0.112823641E-17 0.228195350E-18 0.442215570E-19 0.818471709E-20 0.144192283E-20 0.240915722E-21 0.380244051E-22 0.564518409E-23 0.784672695E-24 0.101595923E-24 0.121842748E-25 0.134510549E-26 0.135749714E-27 0.124296765E-28 0.403163755E-29 0.285004795E-26 0.198466656E-23 0.911495379E-21 0.263000344E-18 0.525234675E-16 0.661259860E-14 0.559028626E-12 0.322260656E-10 0.126998989E-08 0.331774146E-07 0.529408567E-06 0.714640692E-06 0.563150024E-07 0.261742228E-08 0.799149635E-10 0.167809657E-11 0.245909301E-13 0.249460414E-15 0.171231195E-17 0.748040350E-20 0.229679976E-22 0.450270773E-25 0.599733020E-28 0.129410596E-29 0.140518497E-28 0.145089210E-27 0.136817148E-26 0.118662722E-25 0.952619123E-25 0.711959490E-24 0.497961544E-23 0.327504314E-22 0.203434555E-21 0.119832914E-20 0.671892316E-20 0.359842146E-19 0.184685494E-18 0.911167362E-18 0.396799905E-17 0.152297649E-16 0.514002456E-16 0.152059659E-15 0.392684421E-15 0.880598163E-15 0.170367506E-14 0.282094307E-14 0.395871648E-14 0.465254234E-14 0.451313977E-14 0.354975902E-14 0.221534966E-14 0.106872000E-14 0.386382682E-15 0.101015746E-15 0.183433852E-16 0.221151204E-17 0.168116317E-18 0.756889405E-20 0.185405246E-21 0.215495382E-23 0.875252807E-26 0.343601554E-32
0.212496941E-23 0.222924594E-21 0.111006572E-19 0.300341603E-18 0.480871937E-17 0.485216471E-16 0.324908154E-15 0.151019526E-14 0.507164746E-14 0.127504030E-13 0.247477836E-13 0.380631907E-13 0.474028538E-13 0.486512482E-13 0.417447110E-13 0.302968066E-13 0.187770433E-13 0.100161070E-13 0.462819395E-14 0.186232242E-14 0.655355903E-15 0.202365833E-15 0.549721173E-16 0.131607587E-16 0.278000329E-17 0.562455623E-18 0.108670258E-18 0.199856239E-19 0.348662323E-20 0.574836050E-21 0.891994939E-22 0.129695162E-22 0.175833506E-23 0.221079748E-24 0.256248338E-25 0.271976572E-26 0.262373120E-27 0.353130660E-28 0.877837174E-26 0.486144289E-23 0.188611558E-20 0.483102843E-18 0.872617379E-16 0.103570903E-13 0.839820672E-12 0.470225386E-10 0.181417303E-08 0.466560977E-07 0.736123354E-06 0.989225555E-06 0.783986067E-07 0.368108388E-08 0.114072835E-09 0.244591196E-11 0.369123508E-13 0.390450637E-15 0.284613038E-17 0.137724425E-19 0.477187105E-22 0.110979097E-24 0.188276492E-27 0.276913488E-28 0.296193364E-27 0.290367181E-26 0.260462858E-25 0.215246047E-24 0.164883920E-23 0.117727353E-22 0.787428649E-22 0.495639212E-21 0.294821408E-20 0.166365974E-19 0.893775437E-19 0.458655726E-18 0.225517332E-17 0.106552534E-16 0.445286114E-16 0.164343450E-15 0.534475196E-15 0.152698123E-14 0.381719421E-14 0.830780079E-14 0.156450255E-13 0.253010181E-13 0.348167912E-13 0.403171115E-13 0.387558062E-13 0.304170209E-13 0.190989582E-13 0.936090584E-14 0.347735083E-14 0.945942255E-15 0.181170726E-15 0.233639199E-16 0.192701257E-17 0.954657223E-19 0.260925804E-20 0.343065510E-22 0.159774002E-24 0.678509915E-31
0.318078183E-22 0.292963543E-20 0.129889289E-18 0.317246947E-17 0.464949289E-16 0.435485155E-15 0.274458347E-14 0.121688497E-13 0.394753471E-13 0.969647404E-13 0.185739377E-12 0.284392193E-12 0.355198564E-12 0.367900860E-12 0.320258604E-12 0.236862504E-12 0.150166365E-12 0.822058215E-13 0.390934301E-13 0.162303761E-13 0.590644417E-14 0.189010532E-14 0.533177594E-15 0.132814978E-15 0.292479286E-16 0.616631052E-17 0.124112464E-17 0.237764330E-18 0.432107714E-19 0.742335550E-20 0.120082371E-20 0.182127283E-21 0.257778097E-22 0.338714942E-23 0.410797862E-24 0.456895972E-25 0.462638956E-26 0.466361432E-27 0.240455497E-25 0.110003608E-22 0.369653081E-20 0.853524609E-18 0.141335600E-15 0.158839006E-13 0.123909704E-11 0.674970357E-10 0.255130050E-08 0.645973302E-07 0.100730824E-05 0.134781544E-05 0.107522347E-06 0.510212494E-08 0.160451666E-09 0.351002886E-11 0.544577641E-13 0.598926462E-15 0.461611201E-17 0.244086345E-19 0.939717174E-22 0.252873184E-24 0.558265991E-27 0.508830643E-27 0.521652878E-26 0.487401254E-25 0.417391482E-24 0.329776655E-23 0.241814408E-22 0.165439770E-21 0.106116721E-20 0.640934637E-20 0.365987128E-19 0.198304739E-18 0.102301841E-17 0.504052226E-17 0.237887665E-16 0.107832773E-15 0.433163570E-15 0.153966873E-14 0.483194900E-14 0.133489530E-13 0.323401381E-13 0.683805294E-13 0.125451461E-12 0.198282525E-12 0.267684936E-12 0.305470845E-12 0.290941641E-12 0.227709859E-12 0.143686468E-12 0.714175897E-13 0.271875790E-13 0.766900242E-14 0.154266373E-14 0.211769619E-15 0.188479819E-16 0.102142030E-17 0.309530145E-19 0.457287546E-21 0.242498327E-23 0.110735254E-29
0.401492386E-21 0.326918031E-19 0.129901002E-17 0.288165836E-16 0.388763956E-15 0.339721728E-14 0.202413227E-13 0.859277249E-13 0.270055815E-12 0.649538366E-12 0.122976033E-11 0.187615722E-11 0.235103126E-11 0.245756041E-11 0.216982010E-11 0.163457052E-11 0.105931887E-11 0.594627104E-12 0.290737839E-12 0.124399297E-12 0.467569946E-13 0.154849820E-13 0.452930074E-14 0.117205325E-14 0.268617150E-15 0.589053247E-16 0.123271501E-16 0.245478771E-17 0.463719571E-18 0.828153648E-19 0.139304162E-19 0.219805638E-20 0.323872789E-21 0.443400981E-22 0.560893988E-23 0.651489752E-24 0.689932817E-25 0.674122935E-26 0.608658450E-25 0.234598272E-22 0.694961931E-20 0.146276593E-17 0.224266531E-15 0.239509357E-13 0.180149396E-11 0.955758389E-10 0.354080565E-08 0.882529747E-07 0.135944765E-05 0.181144219E-05 0.145587876E-06 0.698511649E-08 0.222937044E-09 0.497341274E-11 0.792339488E-13 0.904098722E-15 0.734117169E-17 0.419955267E-19 0.177655048E-21 0.543509633E-24 0.203359289E-26 0.792788878E-26 0.777242340E-25 0.694648726E-24 0.569847874E-23 0.431828423E-22 0.304017198E-21 0.199867717E-20 0.123268216E-19 0.716214915E-19 0.393529289E-18 0.205196089E-17 0.101861941E-16 0.482824662E-16 0.219123334E-15 0.954577438E-15 0.369178632E-14 0.126567576E-13 0.383826339E-13 0.102665225E-12 0.241319389E-12 0.496207025E-12 0.887618592E-12 0.137206978E-11 0.181807651E-11 0.204504881E-11 0.192971420E-11 0.150540940E-11 0.953669110E-12 0.479916725E-12 0.186789481E-12 0.544663429E-13 0.114631340E-13 0.166754053E-14 0.159346075E-15 0.939397506E-17 0.313745703E-18 0.517496793E-20 0.310361577E-22 0.151504904E-28