<?xml version="1.0"?>
<VTKFile type="StructuredGrid">
<StructuredGrid WholeExtent="     0   100     0   100     0     0">
<Piece Extent="     0   100     0   100     0     0">
<Points>
<DataArray type="Float32" NumberOfComponents="3"/>
0.000000000E+00 0.000000000E+00 0.000000000E+00 0.199999996E-01 0.000000000E+00 0.000000000E+00 0.399999991E-01 0.000000000E+00 0.000000000E+00 0.599999987E-01 0.000000000E+00 0.000000000E+00 0.799999982E-01 0.000000000E+00 0.000000000E+00 0.100000001E+00 0.000000000E+00 0.000000000E+00 0.119999997E+00 0.000000000E+00 0.000000000E+00 0.140000001E+00 0.000000000E+00 0.000000000E+00 0.159999996E+00 0.000000000E+00 0.000000000E+00 0.180000007E+00 0.000000000E+00 0.000000000E+00 0.200000003E+00 0.000000000E+00 0.000000000E+00 0.219999999E+00 0.000000000E+00 0.000000000E+00 0.239999995E+00 0.000000000E+00 0.000000000E+00 0.259999990E+00 0.000000000E+00 0.000000000E+00 0.280000001E+00 0.000000000E+00 0.000000000E+00 0.300000012E+00 0.000000000E+00 0.000000000E+00 0.319999993E+00 0.000000000E+00 0.000000000E+00 0.340000004E+00 0.000000000E+00 0.000000000E+00 0.360000014E+00 0.000000000E+00 0.000000000E+00 0.379999995E+00 0.000000000E+00 0.000000000E+00 0.400000006E+00 0.000000000E+00 0.000000000E+00 0.419999987E+00 0.000000000E+00 0.000000000E+00 0.439999998E+00 0.000000000E+00 0.000000000E+00 0.460000008E+00 0.000000000E+00 0.000000000E+00 0.479999989E+00 0.000000000E+00 0.000000000E+00 0.500000000E+00 0.000000000E+00 0.000000000E+00 0.519999981E+00 0.000000000E+00 0.000000000E+00 0.540000021E+00 0.000000000E+00 0.000000000E+00 0.560000002E+00 0.000000000E+00 0.000000000E+00 0.579999983E+00 0.000000000E+00 0.000000000E+00 0.600000024E+00 0.000000000E+00 0.000000000E+00 0.620000005E+00 0.000000000E+00 0.000000000E+00 0.639999986E+00 0.000000000E+00 0.000000000E+00 0.660000026E+00 0.000000000E+00 0.000000000E+00 0.680000007E+00 0.000000000E+00 0.000000000E+00 0.699999988E+00 0.000000000E+00 0.000000000E+00 0.720000029E+00 0.000000000E+00 0.000000000E+00 0.740000010E+00 0.000000000E+00 0.000000000E+00 0.759999990E+00 0.000000000E+00 0.000000000E+00 0.779999971E+00 0.000000000E+00 0.000000000E+00 0.800000012E+00 0.000000000E+00 0.000000000E+00 0.819999993E+00 0.000000000E+00 0.000000000E+00 0.839999974E+00 0.000000000E+00 0.000000000E+00 0.860000014E+00 0.000000000E+00 0.000000000E+00 0.879999995E+00 0.000000000E+00 0.000000000E+00 0.899999976E+00 0.000000000E+00 0.000000000E+00 0.920000017E+00 0.000000000E+00 0.000000000E+00 0.939999998E+00 0.000000000E+00 0.000000000E+00 0.959999979E+00 0.000000000E+00 0.000000000E+00 0.980000019E+00 0.000000000E+00 0.000000000E+00 0.100000000E+01 0.000000000E+00 0.000000000E+00 0.101999998E+01 0.000000000E+00 0.000000000E+00 0.103999996E+01 0.000000000E+00 0.000000000E+00 0.105999994E+01 0.000000000E+00 0.000000000E+00 0.108000004E+01 0.000000000E+00 0.000000000E+00 0.110000002E+01 0.000000000E+00 0.000000000E+00 0.112000000E+01 0.000000000E+00 0.000000000E+00 0.113999999E+01 0.000000000E+00 0.000000000E+00 0.115999997E+01 0.000000000E+00 0.000000000E+00 0.117999995E+01 0.000000000E+00 0.000000000E+00 0.120000005E+01 0.000000000E+00 0.000000000E+00 0.122000003E+01 0.000000000E+00 0.000000000E+00 0.124000001E+01 0.000000000E+00 0.000000000E+00 0.125999999E+01 0.000000000E+00 0.000000000E+00 0.127999997E+01 0.000000000E+00 0.000000000E+00 0.129999995E+01 0.000000000E+00 0.000000000E+00 0.132000005E+01 0.000000000E+00 0.000000000E+00 0.134000003E+01 0.000000000E+00 0.000000000E+00 0.136000001E+01 0.000000000E+00 0.000000000E+00 0.138000000E+01 0.000000000E+00 0.000000000E+00 0.139999998E+01 0.000000000E+00 0.000000000E+00 0.141999996E+01 0.000000000E+00 0.000000000E+00 0.144000006E+01 0.000000000E+00 0.000000000E+00 0.146000004E+01 0.000000000E+00 0.000000000E+00 0.148000002E+01 0.000000000E+00 0.000000000E+00 0.150000000E+01 0.000000000E+00 0.000000000E+00 0.151999998E+01 0.000000000E+00 0.000000000E+00 0.153999996E+01 0.000000000E+00 0.000000000E+00 0.155999994E+01 0.000000000E+00 0.000000000E+00 0.158000004E+01 0.000000000E+00 0.000000000E+00 0.160000002E+01 0.000000000E+00 0.000000000E+00 0.162000000E+01 0.000000000E+00 0.000000000E+00 0.163999999E+01 0.000000000E+00 0.000000000E+00 0.165999997E+01 0.000000000E+00 0.000000000E+00 0.167999995E+01 0.000000000E+00 0.000000000E+00 0.170000005E+01 0.000000000E+00 0.000000000E+00 0.172000003E+01 0.000000000E+00 0.000000000E+00 0.174000001E+01 0.000000000E+00 0.000000000E+00 0.175999999E+01 0.000000000E+00 0.000000000E+00 0.177999997E+01 0.000000000E+00 0.000000000E+00 0.179999995E+01 0.000000000E+00 0.000000000E+00 0.182000005E+01 0.000000000E+00 0.000000000E+00 0.184000003E+01 0.000000000E+00 0.000000000E+00 0.186000001E+01 0.000000000E+00 0.000000000E+00 0.188000000E+01 0.000000000E+00 0.000000000E+00 0.189999998E+01 0.000000000E+00 0.000000000E+00 0.191999996E+01 0.000000000E+00 0.000000000E+00 0.194000006E+01 0.000000000E+00 0.000000000E+00 0.196000004E+01 0.000000000E+00 0.000000000E+00 0.198000002E+01 0.000000000E+00 0.000000000E+00 0.200000000E+01 0.000000000E+00 0.000000000E+00
0.000000000E+00 0.999999978E-02 0.000000000E+00 0.199999996E-01 0.999999978E-02 0.000000000E+00 0.399999991E-01 0.999999978E-02 0.000000000E+00 0.599999987E-01 0.999999978E-02 0.000000000E+00 0.799999982E-01 0.999999978E-02 0.000000000E+00 0.100000001E+00 0.999999978E-02 0.000000000E+00 0.119999997E+00 0.999999978E-02 0.000000000E+00 0.140000001E+00 0.999999978E-02 0.000000000E+00 0.159999996E+00 0.999999978E-02 0.000000000E+00 0.180000007E+00 0.999999978E-02 0.000000000E+00 0.200000003E+00 0.999999978E-02 0.000000000E+00 0.219999999E+00 0.999999978E-02 0.000000000E+00 0.239999995E+00 0.999999978E-02 0.000000000E+00 0.259999990E+00 0.999999978E-02 0.000000000E+00 0.280000001E+00 0.999999978E-02 0.000000000E+00 0.300000012E+00 0.999999978E-02 0.000000000E+00 0.319999993E+00 0.999999978E-02 0.000000000E+00 0.340000004E+00 0.999999978E-02 0.000000000E+00 0.360000014E+00 0.999999978E-02 0.000000000E+00 0.379999995E+00 0.999999978E-02 0.000000000E+00 0.400000006E+00 0.999999978E-02 0.000000000E+00 0.419999987E+00 0.999999978E-02 0.000000000E+00 0.439999998E+00 0.999999978E-02 0.000000000E+00 0.460000008E+00 0.999999978E-02 0.000000000E+00 0.479999989E+00 0.999999978E-02 0.000000000E+00 0.500000000E+00 0.999999978E-02 0.000000000E+00 0.519999981E+00 0.999999978E-02 0.000000000E+00 0.540000021E+00 0.999999978E-02 0.000000000E+00 0.560000002E+00 0.999999978E-02 0.000000000E+00 0.579999983E+00 0.999999978E-02 0.000000000E+00 0.600000024E+00 0.999999978E-02 0.000000000E+00 0.620000005E+00 0.999999978E-02 0.000000000E+00 0.639999986E+00 0.999999978E-02 0.000000000E+00 0.660000026E+00 0.999999978E-02 0.000000000E+00 0.680000007E+00 0.999999978E-02 0.000000000E+00 0.699999988E+00 0.999999978E-02 0.000000000E+00 0.720000029E+00 0.999999978E-02 0.000000000E+00 0.740000010E+00 0.999999978E-02 0.000000000E+00 0.759999990E+00 0.999999978E-02 0.000000000E+00 0.779999971E+00 0.999999978E-02 0.000000000E+00 0.800000012E+00 0.999999978E-02 0.000000000E+00 0.819999993E+00 0.999999978E-02 0.000000000E+00 0.839999974E+00 0.999999978E-02 0.000000000E+00 0.860000014E+00 0.999999978E-02 0.000000000E+00 0.879999995E+00 0.999999978E-02 0.000000000E+00 0.899999976E+00 0.999999978E-02 0.000000000E+00 0.920000017E+00 0.999999978E-02 0.000000000E+00 0.939999998E+00 0.999999978E-02 0.000000000E+00 0.959999979E+00 0.999999978E-02 0.000000000E+00 0.980000019E+00 0.999999978E-02 0.000000000E+00 0.100000000E+01 0.999999978E-02 0.000000000E+00 0.101999998E+01 0.999999978E-02 0.000000000E+00 0.103999996E+01 0.999999978E-02 0.000000000E+00 0.105999994E+01 0.999999978E-02 0.000000000E+00 0.108000004E+01 0.999999978E-02 0.000000000E+00 0.110000002E+01 0.999999978E-02 0.000000000E+00 0.112000000E+01 0.999999978E-02 0.000000000E+00 0.113999999E+01 0.999999978E-02 0.000000000E+00 0.115999997E+01 0.999999978E-02 0.000000000E+00 0.117999995E+01 0.999999978E-02 0.000000000E+00 0.120000005E+01 0.999999978E-02 0.000000000E+00 0.122000003E+01 0.999999978E-02 0.000000000E+00 0.124000001E+01 0.999999978E-02 0.000000000E+00 0.125999999E+01 0.999999978E-02 0.000000000E+00 0.127999997E+01 0.999999978E-02 0.000000000E+00 0.129999995E+01 0.999999978E-02 0.000000000E+00 0.132000005E+01 0.999999978E-02 0.000000000E+00 0.134000003E+01 0.999999978E-02 0.000000000E+00 0.136000001E+01 0.999999978E-02 0.000000000E+00 0.138000000E+01 0.999999978E-02 0.000000000E+00 0.139999998E+01 0.999999978E-02 0.000000000E+00 0.141999996E+01 0.999999978E-02 0.000000000E+00 0.144000006E+01 0.999999978E-02 0.000000000E+00 0.146000004E+01 0.999999978E-02 0.000000000E+00 0.148000002E+01 0.999999978E-02 0.000000000E+00 0.150000000E+01 0.999999978E-02 0.000000000E+00 0.151999998E+01 0.999999978E-02 0.000000000E+00 0.153999996E+01 0.999999978E-02 0.000000000E+00 0.155999994E+01 0.999999978E-02 0.000000000E+00 0.158000004E+01 0.999999978E-02 0.000000000E+00 0.160000002E+01 0.999999978E-02 0.000000000E+00 0.162000000E+01 0.999999978E-02 0.000000000E+00 0.163999999E+01 0.999999978E-02 0.000000000E+00 0.165999997E+01 0.999999978E-02 0.000000000E+00 0.167999995E+01 0.999999978E-02 0.000000000E+00 0.170000005E+01 0.999999978E-02 0.000000000E+00 0.172000003E+01 0.999999978E-02 0.000000000E+00 0.174000001E+01 0.999999978E-02 0.000000000E+00 0.175999999E+01 0.999999978E-02 0.000000000E+00 0.177999997E+01 0.999999978E-02 0.000000000E+00 0.179999995E+01 0.999999978E-02 0.000000000E+00 0.182000005E+01 0.999999978E-02 0.000000000E+00 0.184000003E+01 0.999999978E-02 0.000000000E+00 0.186000001E+01 0.999999978E-02 0.000000000E+00 0.188000000E+01 0.999999978E-02 0.000000000E+00 0.189999998E+01 0.999999978E-02 0.000000000E+00 0.191999996E+01 0.999999978E-02 0.000000000E+00 0.194000006E+01 0.999999978E-02 0.000000000E+00 0.196000004E+01 0.999999978E-02 0.000000000E+00 0.198000002E+01 0.999999978E-02 0.000000000E+00 0.200000000E+01 0.999999978E-02 0.000000000E+00
[...]
<CellData Scalars="Temperature, U, V">
<DataArray type="Float32" Name="Temp, K"/>
0.711237135E-06 0.217029424E-05 0.466864731E-05 0.837107382E-05 0.132731020E-04 0.191885065E-04 0.257666652E-04 0.325348592E-04 0.389575398E-04 0.445030964E-04 0.487085636E-04 0.512336519E-04 0.518976376E-04 0.506950273E-04 0.477889189E-04 0.434839967E-04 0.381835343E-04 0.323370987E-04 0.263866514E-04 0.207188314E-04 0.156297774E-04 0.113066371E-04 0.782669213E-05 0.517188755E-05 0.325389351E-05 0.200979480E-05 0.121652931E-05 0.720217940E-06 0.416132622E-06 0.234085874E-06 0.127855742E-06 0.676004461E-07 0.344808946E-07 0.169015202E-07 0.792642130E-08 0.353867735E-08 0.149516932E-08 0.593867289E-09 0.219985724E-09 0.752872070E-10 0.235372485E-10 0.662950771E-11 0.165333144E-11 0.356991563E-12 0.647560144E-13 0.945289955E-14 0.128187827E-14 0.136099573E-12 0.387881741E-10 0.548828136E-10 0.257479991E-12 0.892612637E-15 0.270330311E-14 0.190352799E-13 0.107898452E-12 0.513802813E-12 0.211830423E-11 0.773240499E-11 0.254275993E-10 0.763785077E-10 0.211943824E-09 0.548447898E-09 0.133400191E-08 0.307057446E-08 0.672748568E-08 0.141009897E-07 0.284006418E-07 0.551790116E-07 0.103771377E-06 0.189479778E-06 0.336830595E-06 0.584363079E-06 0.991585239E-06 0.164898120E-05 0.269229440E-05 0.432279558E-05 0.661648801E-05 0.967689448E-05 0.135524933E-04 0.182097865E-04 0.235132429E-04 0.292176210E-04 0.349765724E-04 0.403687191E-04 0.449392974E-04 0.482527030E-04 0.499485432E-04 0.497937654E-04 0.477220128E-04 0.438540919E-04 0.384941777E-04 0.321013431E-04 0.252372956E-04 0.184959499E-04 0.124241815E-04 0.744492718E-05 0.379553603E-05 0.149452421E-05 0.347644345E-06 0.284269136E-11
0.408357164E-05 0.121702578E-04 0.257429001E-04 0.456155212E-04 0.717554867E-04 0.103244784E-03 0.138371863E-03 0.174828907E-03 0.209979204E-03 0.241156376E-03 0.265958108E-03 0.282500492E-03 0.289607880E-03 0.286918570E-03 0.274898426E-03 0.254762883E-03 0.228318488E-03 0.197744797E-03 0.165344172E-03 0.133293550E-03 0.103430277E-03 0.771010600E-04 0.550914556E-04 0.376395183E-04 0.245220926E-04 0.156520509E-04 0.977154559E-05 0.595568144E-05 0.353656333E-05 0.204132766E-05 0.114235763E-05 0.617993862E-06 0.322127249E-06 0.161177852E-06 0.770833211E-07 0.350638487E-07 0.150847175E-07 0.609706330E-08 0.229738095E-08 0.799573019E-09 0.254186977E-09 0.728072741E-10 0.184696650E-10 0.405833787E-11 0.749587783E-12 0.111503072E-12 0.129951092E-13 0.279158939E-12 0.792085356E-10 0.112019991E-09 0.525818755E-12 0.478036130E-14 0.325270105E-13 0.224823388E-12 0.125174795E-11 0.585915604E-11 0.237577995E-10 0.853255522E-10 0.276127343E-09 0.816270662E-09 0.222890262E-08 0.567402925E-08 0.135709479E-07 0.306985299E-07 0.660509585E-07 0.135840082E-06 0.268178184E-06 0.510145526E-06 0.938156234E-06 0.167276755E-05 0.289936611E-05 0.489647073E-05 0.807375727E-05 0.130223279E-04 0.205802171E-04 0.319166720E-04 0.472525899E-04 0.669478031E-04 0.909734954E-04 0.118801843E-03 0.149352418E-03 0.181014504E-03 0.211752049E-03 0.239283472E-03 0.261316309E-03 0.275808066E-03 0.281216810E-03 0.276713050E-03 0.262318208E-03 0.238952867E-03 0.208377445E-03 0.173032400E-03 0.135781520E-03 0.995845112E-04 0.671355738E-04 0.405127430E-04 0.208905913E-04 0.837411972E-05 0.200705495E-05 0.160468513E-10
0.171994725E-04 0.502208532E-04 0.104677129E-03 0.183532116E-03 0.286573108E-03 0.410365930E-03 0.548637472E-03 0.692982925E-03 0.833781436E-03 0.961198355E-03 0.106616691E-02 0.114125467E-02 0.118134532E-02 0.118407654E-02 0.115000294E-02 0.108247460E-02 0.987240579E-03 0.871817232E-03 0.744689314E-03 0.614431105E-03 0.488856982E-03 0.374310825E-03 0.275190512E-03 0.193765722E-03 0.130300148E-03 0.856727565E-04 0.549917386E-04 0.343997708E-04 0.209300979E-04 0.123592690E-04 0.706555602E-05 0.389956722E-05 0.207120229E-05 0.105484901E-05 0.512998895E-06 0.237095833E-06 0.103563046E-06 0.424763407E-07 0.162344040E-07 0.572956482E-08 0.184683291E-08 0.536389322E-09 0.138002609E-09 0.307654631E-10 0.576849419E-11 0.871687271E-12 0.100092948E-12 0.434877855E-12 0.121394367E-09 0.171595751E-09 0.807710127E-12 0.305867494E-13 0.258821231E-12 0.176109995E-11 0.966034110E-11 0.445794755E-10 0.178299028E-09 0.631845409E-09 0.201792472E-08 0.588706373E-08 0.158621347E-07 0.398326954E-07 0.939385245E-07 0.209403098E-06 0.443673855E-06 0.897763016E-06 0.174212914E-05 0.325382462E-05 0.586792748E-05 0.102463455E-04 0.173669087E-04 0.286351096E-04 0.460198826E-04 0.722133700E-04 0.110812623E-03 0.166518759E-03 0.239220884E-03 0.329377421E-03 0.435657130E-03 0.554681290E-03 0.681030855E-03 0.807548524E-03 0.925909146E-03 0.102739735E-02 0.110379397E-02 0.114826742E-02 0.115615677E-02 0.112557260E-02 0.105772796E-02 0.956969219E-03 0.830470526E-03 0.687624852E-03 0.539144967E-03 0.395945128E-03 0.267914351E-03 0.162709024E-03 0.847285046E-04 0.344701912E-04 0.846410421E-05 0.659212199E-10
0.555549341E-04 0.159113595E-03 0.327041547E-03 0.567525974E-03 0.879507337E-03 0.125289487E-02 0.166983646E-02 0.210673292E-02 0.253667869E-02 0.293203956E-02 0.326694292E-02 0.351947593E-02 0.367347500E-02 0.371977873E-02 0.365688931E-02 0.349099236E-02 0.323531521E-02 0.290886289E-02 0.253461511E-02 0.213733246E-02 0.174119836E-02 0.136756897E-02 0.103313092E-02 0.748731138E-03 0.519046211E-03 0.351200084E-03 0.231594793E-03 0.148596082E-03 0.925931090E-04 0.559148357E-04 0.326449881E-04 0.183768589E-04 0.994380480E-05 0.515382453E-05 0.254826591E-05 0.119637934E-05 0.530450222E-06 0.220705346E-06 0.855291873E-07 0.305954124E-07 0.999364769E-08 0.294107561E-08 0.766788855E-09 0.173266318E-09 0.329414794E-10 0.505018943E-11 0.585263717E-12 0.629285307E-12 0.165489455E-09 0.233807945E-09 0.111183773E-11 0.174179681E-12 0.152464727E-11 0.102266581E-10 0.553359615E-10 0.252020044E-09 0.995144411E-09 0.348232998E-08 0.109826157E-07 0.316371747E-07 0.841499173E-07 0.208526345E-06 0.485035571E-06 0.106572838E-05 0.222399399E-05 0.442854116E-05 0.844856640E-05 0.154963200E-04 0.274115773E-04 0.468891667E-04 0.777459136E-04 0.125216466E-03 0.196259876E-03 0.299849693E-03 0.447212427E-03 0.651970855E-03 0.909996219E-03 0.121921580E-02 0.157174410E-02 0.195372663E-02 0.234600483E-02 0.272553205E-02 0.306737050E-02 0.334701315E-02 0.354275107E-02 0.363785168E-02 0.362229277E-02 0.349396397E-02 0.325916801E-02 0.293241139E-02 0.253542117E-02 0.209548208E-02 0.164309575E-02 0.120909780E-02 0.821464288E-03 0.502082752E-03 0.263872847E-03 0.108786146E-03 0.272793004E-04 0.205996248E-09
0.147446233E-03 0.414632814E-03 0.840921828E-03 0.144459133E-02 0.222154730E-02 0.314680417E-02 0.417804671E-02 0.526048290E-02 0.633228570E-02 0.733006699E-02 0.819399022E-02 0.887222122E-02 0.932459813E-02 0.952534191E-02 0.946476683E-02 0.914989319E-02 0.860387087E-02 0.786419865E-02 0.697972905E-02 0.600657845E-02 0.500323018E-02 0.402528467E-02 0.312046101E-02 0.232457346E-02 0.165912008E-02 0.115404651E-02 0.781179057E-03 0.513755251E-03 0.327680318E-03 0.202274940E-03 0.120565506E-03 0.692067042E-04 0.381427126E-04 0.201149214E-04 0.101099486E-04 0.482075529E-05 0.216921421E-05 0.915372254E-06 0.359575779E-06 0.130328317E-06 0.431203020E-07 0.128518129E-07 0.339326633E-08 0.776576914E-09 0.149571189E-09 0.232389594E-10 0.272728021E-11 0.963451866E-12 0.211651863E-09 0.298870623E-09 0.146922188E-11 0.816574835E-12 0.712691581E-11 0.471782440E-10 0.252063398E-09 0.113393395E-08 0.442367165E-08 0.152948001E-07 0.476574229E-07 0.135609554E-06 0.356185666E-06 0.871211682E-06 0.199910755E-05 0.433032983E-05 0.890197680E-05 0.174467714E-04 0.327281050E-04 0.589647243E-04 0.102336075E-03 0.171540989E-03 0.278361666E-03 0.438161398E-03 0.670223788E-03 0.997827970E-03 0.144794863E-02 0.205048989E-02 0.278425356E-02 0.363476481E-02 0.457324134E-02 0.555778667E-02 0.653635710E-02 0.745106209E-02 0.824322645E-02 0.885856804E-02 0.925199129E-02 0.939158630E-02 0.926151033E-02 0.886374060E-02 0.821846817E-02 0.736322440E-02 0.635059597E-02 0.524472538E-02 0.411647186E-02 0.303739705E-02 0.207293383E-02 0.127517537E-02 0.676050258E-03 0.282050372E-03 0.720102471E-04 0.524974064E-09
0.336254510E-03 0.929175585E-03 0.186040474E-02 0.316414936E-02 0.482759764E-02 0.679630134E-02 0.898284651E-02 0.112771671E-01 0.135571472E-01 0.156986248E-01 0.175842922E-01 0.191111621E-01 0.201966725E-01 0.207833145E-01 0.208418667E-01 0.203731768E-01 0.194083527E-01 0.180071611E-01 0.162544157E-01 0.142542366E-01 0.121222259E-01 0.997599307E-02 0.792488270E-02 0.606019422E-02 0.444740430E-02 0.317680417E-02 0.220549200E-02 0.148576836E-02 0.969494868E-03 0.611520023E-03 0.372010662E-03 0.217698485E-03 0.122188212E-03 0.655556141E-04 0.334894648E-04 0.162169672E-04 0.740485393E-05 0.316865339E-05 0.126146688E-05 0.463151167E-06 0.155167967E-06 0.468175365E-07 0.125119808E-07 0.289835178E-08 0.565098468E-09 0.889019483E-10 0.105648381E-10 0.176502302E-11 0.260061001E-09 0.367017139E-09 0.197944525E-11 0.320231493E-11 0.276735596E-10 0.180966617E-09 0.955467705E-09 0.424855884E-08 0.163842344E-07 0.559967859E-07 0.172448551E-06 0.484854638E-06 0.125783595E-05 0.303728325E-05 0.687631155E-05 0.146858956E-04 0.297432907E-04 0.573808175E-04 0.105855383E-03 0.187363068E-03 0.319116574E-03 0.524347648E-03 0.833046273E-03 0.128220685E-02 0.191534101E-02 0.278104655E-02 0.393049046E-02 0.541380467E-02 0.716094207E-02 0.912131090E-02 0.112166088E-01 0.133463051E-01 0.153958574E-01 0.172463916E-01 0.187845640E-01 0.199115984E-01 0.205507949E-01 0.206532050E-01 0.202012323E-01 0.192104634E-01 0.177294817E-01 0.158379097E-01 0.136423493E-01 0.112704942E-01 0.886285491E-02 0.656218035E-02 0.450088130E-02 0.278699654E-02 0.148994091E-02 0.628289825E-03 0.162863143E-03 0.114189791E-08
0.679951801E-03 0.184752711E-02 0.365338870E-02 0.615222659E-02 0.931026135E-02 0.130200600E-01 0.171193220E-01 0.214106329E-01 0.256800279E-01 0.297132209E-01 0.333090462E-01 0.362900831E-01 0.385109819E-01 0.398647524E-01 0.402874500E-01 0.397613533E-01 0.383167304E-01 0.360316001E-01 0.330290906E-01 0.294716898E-01 0.255517662E-01 0.214782245E-01 0.174598861E-01 0.136871310E-01 0.103143621E-01 0.755793136E-02 0.537701417E-02 0.370803336E-02 0.247412943E-02 0.159404322E-02 0.989444787E-03 0.590178650E-03 0.337295176E-03 0.184087272E-03 0.955782161E-04 0.469989100E-04 0.217752240E-04 0.944806015E-05 0.381149471E-05 0.141730288E-05 0.480698645E-06 0.146779342E-06 0.396889455E-07 0.930105593E-08 0.183461313E-08 0.292028429E-09 0.351183665E-10 0.393988358E-11 0.310933973E-09 0.438506426E-09 0.292019599E-11 0.107864143E-10 0.921999144E-10 0.596088512E-09 0.311225046E-08 0.136865239E-07 0.521994359E-07 0.176415440E-06 0.537112101E-06 0.149245614E-05 0.382479629E-05 0.911869665E-05 0.203702712E-04 0.428973181E-04 0.855989492E-04 0.162564771E-03 0.294954720E-03 0.512963161E-03 0.857563224E-03 0.138161413E-02 0.214984920E-02 0.323726609E-02 0.472554239E-02 0.669733947E-02 0.922865607E-02 0.123798056E-01 0.159728304E-01 0.198787674E-01 0.239258800E-01 0.279139988E-01 0.316315293E-01 0.348724723E-01 0.374517292E-01 0.392174572E-01 0.400601663E-01 0.399188288E-01 0.387839563E-01 0.366988815E-01 0.337586217E-01 0.301069878E-01 0.259309728E-01 0.214527566E-01 0.169178434E-01 0.125788832E-01 0.867519062E-02 0.540822046E-02 0.291466317E-02 0.124099350E-02 0.325785571E-03 0.218965979E-08
0.124783756E-02 0.333558233E-02 0.651645195E-02 0.108652264E-01 0.163044147E-01 0.226384830E-01 0.295906495E-01 0.368375219E-01 0.440388583E-01 0.508612543E-01 0.569960400E-01 0.621720664E-01 0.661648288E-01 0.688029453E-01 0.699731335E-01 0.696242824E-01 0.677708611E-01 0.644953251E-01 0.599485971E-01 0.543473251E-01 0.479661524E-01 0.411236323E-01 0.341610089E-01 0.274147931E-01 0.211858805E-01 0.159082059E-01 0.115882652E-01 0.817516167E-02 0.557502778E-02 0.366758928E-02 0.232223910E-02 0.141160586E-02 0.821374473E-03 0.455988687E-03 0.240603971E-03 0.120137818E-03 0.564756556E-04 0.248447141E-04 0.101553760E-04 0.382404460E-05 0.131274214E-05 0.405549372E-06 0.110914470E-06 0.262846580E-07 0.524232302E-08 0.843760506E-09 0.102608443E-09 0.967241825E-11 0.364556524E-09 0.513634246E-09 0.497001095E-11 0.319272976E-10 0.270015066E-09 0.172710535E-08 0.892240681E-08 0.388240409E-07 0.146496646E-06 0.489736237E-06 0.147441995E-05 0.404962793E-05 0.102533941E-04 0.241374073E-04 0.532074882E-04 0.110487505E-03 0.217229885E-03 0.406145526E-03 0.724817801E-03 0.123872119E-02 0.203305157E-02 0.321243494E-02 0.489762938E-02 0.721857417E-02 0.103036454E-01 0.142656602E-01 0.191859584E-01 0.250985883E-01 0.316303931E-01 0.385155603E-01 0.454368480E-01 0.520536117E-01 0.580295920E-01 0.630569980E-01 0.668751895E-01 0.692835078E-01 0.701491237E-01 0.694112107E-01 0.670821667E-01 0.632478073E-01 0.580658428E-01 0.517631620E-01 0.446303077E-01 0.370130874E-01 0.292982608E-01 0.218918957E-01 0.151892789E-01 0.953568518E-02 0.517971162E-02 0.222482462E-02 0.590185053E-03 0.379229981E-08
0.211551902E-02 0.556533365E-02 0.107441265E-01 0.177368429E-01 0.263848621E-01 0.363557748E-01 0.472093225E-01 0.584537089E-01 0.695894882E-01 0.801410824E-01 0.896776691E-01 0.978255942E-01 0.104275443E+00 0.108785972E+00 0.111186810E+00 0.111381702E+00 0.109352715E+00 0.105165571E+00 0.989751518E-01 0.910292044E-01 0.816673711E-01 0.713122785E-01 0.604494922E-01 0.495949760E-01 0.392512679E-01 0.301703271E-01 0.224839393E-01 0.162160434E-01 0.112967966E-01 0.758558000E-02 0.489821890E-02 0.303376629E-02 0.179704651E-02 0.101469993E-02 0.544097682E-03 0.275856641E-03 0.131568580E-03 0.586802016E-04 0.243010818E-04 0.926528264E-05 0.321875086E-05 0.100583009E-05 0.278150509E-06 0.666319053E-07 0.134310776E-07 0.218462093E-08 0.268479683E-09 0.236420987E-10 0.421337437E-09 0.592751570E-09 0.960361044E-11 0.845869416E-10 0.708177683E-09 0.448425652E-08 0.229337243E-07 0.987811859E-07 0.368892785E-06 0.122014558E-05 0.363318304E-05 0.986510076E-05 0.246799573E-04 0.573715624E-04 0.124801081E-03 0.255554012E-03 0.495079148E-03 0.911306182E-03 0.159979786E-02 0.268706167E-02 0.433039246E-02 0.671263365E-02 0.100307437E-01 0.144779459E-01 0.202205498E-01 0.273719318E-01 0.359674692E-01 0.459447280E-01 0.566322431E-01 0.675647706E-01 0.782351121E-01 0.881376117E-01 0.968050137E-01 0.103835300E+00 0.108908422E+00 0.111794546E+00 0.112356640E+00 0.110550389E+00 0.106422402E+00 0.100110069E+00 0.918411091E-01 0.819338411E-01 0.707948655E-01 0.589137599E-01 0.468494818E-01 0.352049768E-01 0.245870035E-01 0.155481519E-01 0.851151347E-02 0.368547463E-02 0.985996565E-03 0.604419581E-08
0.335946819E-02 0.869990699E-02 0.166001990E-01 0.271311887E-01 0.399974808E-01 0.546664596E-01 0.704779103E-01 0.867291167E-01 0.102735013E+00 0.117866032E+00 0.131568760E+00 0.143373787E+00 0.152896792E+00 0.159835622E+00 0.163967580E+00 0.165148750E+00 0.163316995E+00 0.158499226E+00 0.150822327E+00 0.140525848E+00 0.127972722E+00 0.113653086E+00 0.981744081E-01 0.822331309E-01 0.665648505E-01 0.523193255E-01 0.398552269E-01 0.293677077E-01 0.208894052E-01 0.143120000E-01 0.942231528E-02 0.594507717E-02 0.358449202E-02 0.205841102E-02 0.112158770E-02 0.577358645E-03 0.279368309E-03 0.126314626E-03 0.529932040E-04 0.204553089E-04 0.719010950E-05 0.227222904E-05 0.635182573E-06 0.153758634E-06 0.313106270E-07 0.514405007E-08 0.638486874E-09 0.548868138E-10 0.481893081E-09 0.676293799E-09 0.197109863E-10 0.203568440E-09 0.168818348E-08 0.105882654E-07 0.536327356E-07 0.228757273E-06 0.845731392E-06 0.276837909E-05 0.815452495E-05 0.218924397E-04 0.541218214E-04 0.124247279E-03 0.266730785E-03 0.538620458E-03 0.102821249E-02 0.186349684E-02 0.321827689E-02 0.531327398E-02 0.840950292E-02 0.127918413E-01 0.187422819E-01 0.265044775E-01 0.362437107E-01 0.480084531E-01 0.617007427E-01 0.770621225E-01 0.930297226E-01 0.108892545E+00 0.123935774E+00 0.137496188E+00 0.149000794E+00 0.157987803E+00 0.164113745E+00 0.167151153E+00 0.166982263E+00 0.163593024E+00 0.157068774E+00 0.147595391E+00 0.135462880E+00 0.121072575E+00 0.104942776E+00 0.877116844E-01 0.701296926E-01 0.530344769E-01 0.373022966E-01 0.237682462E-01 0.131125115E-01 0.572031597E-02 0.154090917E-02 0.899715236E-08
0.505223591E-02 0.128814150E-01 0.242961366E-01 0.393102914E-01 0.574155934E-01 0.778023452E-01 0.995297730E-01 0.121646516E+00 0.143266737E+00 0.163610503E+00 0.182018712E+00 0.197950974E+00 0.210975260E+00 0.220754072E+00 0.227032140E+00 0.229628652E+00 0.228436083E+00 0.223427013E+00 0.214669168E+00 0.202347368E+00 0.186788887E+00 0.168486342E+00 0.148108453E+00 0.126488999E+00 0.104584321E+00 0.839684010E-01 0.653288960E-01 0.491493270E-01 0.356780104E-01 0.249316506E-01 0.167299304E-01 0.107512884E-01 0.659717666E-02 0.385247567E-02 0.213287049E-02 0.111467682E-02 0.547153584E-03 0.250775076E-03 0.106570398E-03 0.416405237E-04 0.148071540E-04 0.473122373E-05 0.133657807E-05 0.326836698E-06 0.672100171E-07 0.111478089E-07 0.139670964E-08 0.119327714E-09 0.547162704E-09 0.764820429E-09 0.404567144E-10 0.450387200E-09 0.370182041E-08 0.230090578E-07 0.115481186E-06 0.487928730E-06 0.178637470E-05 0.578828713E-05 0.168695151E-04 0.447861748E-04 0.109422886E-03 0.248099037E-03 0.525665295E-03 0.104687561E-02 0.196940475E-02 0.351459137E-02 0.597190112E-02 0.969268288E-02 0.150695909E-01 0.225001145E-01 0.323361754E-01 0.448256359E-01 0.600551255E-01 0.779054910E-01 0.980304703E-01 0.119865544E+00 0.141905680E+00 0.163185313E+00 0.182806775E+00 0.199996740E+00 0.214134261E+00 0.224755138E+00 0.231541008E+00 0.234301880E+00 0.232959092E+00 0.227533683E+00 0.218141198E+00 0.204996884E+00 0.188427299E+00 0.168888748E+00 0.146986365E+00 0.123492092E+00 0.993501693E-01 0.756595060E-01 0.536212809E-01 0.344369151E-01 0.191463660E-01 0.841155648E-02 0.227831141E-02 0.126572308E-07
0.725890743E-02 0.182228889E-01 0.339785628E-01 0.544182435E-01 0.787238777E-01 0.105721302E+00 0.134129584E+00 0.162721083E+00 0.190409660E+00 0.216286689E+00 0.239622444E+00 0.259847283E+00 0.276524484E+00 0.289320916E+00 0.297982335E+00 0.302315265E+00 0.302178830E+00 0.297488004E+00 0.288229883E+00 0.274492532E+00 0.256504416E+00 0.234679684E+00 0.209657326E+00 0.182321146E+00 0.153782949E+00 0.125989199E+00 0.100028314E+00 0.767845586E-01 0.568537861E-01 0.405054353E-01 0.276955832E-01 0.181235392E-01 0.113159427E-01 0.671874778E-02 0.377906649E-02 0.200490514E-02 0.998242293E-03 0.463723351E-03 0.199590067E-03 0.789302867E-04 0.283885165E-04 0.916918816E-05 0.261702166E-05 0.646245894E-06 0.134147996E-06 0.224535519E-07 0.283819879E-08 0.242777964E-09 0.618549045E-09 0.859064597E-09 0.803328445E-10 0.925136912E-09 0.754039853E-08 0.464691929E-07 0.231186846E-06 0.967964297E-06 0.351043377E-05 0.112623266E-04 0.324823486E-04 0.852917074E-04 0.205976205E-03 0.461304298E-03 0.964750536E-03 0.189504528E-02 0.351353176E-02 0.617487030E-02 0.103245135E-01 0.164767355E-01 0.251697376E-01 0.368989669E-01 0.520361066E-01 0.707467496E-01 0.929235071E-01 0.118150905E+00 0.145713270E+00 0.174648330E+00 0.203028277E+00 0.229676038E+00 0.253582954E+00 0.273949504E+00 0.290188134E+00 0.301900268E+00 0.308842152E+00 0.310890377E+00 0.308014631E+00 0.300262779E+00 0.287757546E+00 0.270709097E+00 0.249437481E+00 0.224407092E+00 0.196264595E+00 0.165879354E+00 0.134371072E+00 0.103109747E+00 0.736681968E-01 0.477015600E-01 0.267302003E-01 0.118224341E-01 0.321615697E-02 0.169895831E-07