<?xml version="1.0"?>
<VTKFile type="StructuredGrid">
<StructuredGrid WholeExtent="     0   100     0   100     0     0">
<Piece Extent="     0   100     0   100     0     0">
<Points>
<DataArray type="Float32" NumberOfComponents="3"/>
0.000000000E+00 0.000000000E+00 0.000000000E+00 0.199999996E-01 0.000000000E+00 0.000000000E+00 0.399999991E-01 0.000000000E+00 0.000000000E+00 0.599999987E-01 0.000000000E+00 0.000000000E+00 0.799999982E-01 0.000000000E+00 0.000000000E+00 0.100000001E+00 0.000000000E+00 0.000000000E+00 0.119999997E+00 0.000000000E+00 0.000000000E+00 0.140000001E+00 0.000000000E+00 0.000000000E+00 0.159999996E+00 0.000000000E+00 0.000000000E+00 0.180000007E+00 0.000000000E+00 0.000000000E+00 0.200000003E+00 0.000000000E+00 0.000000000E+00 0.219999999E+00 0.000000000E+00 0.000000000E+00 0.239999995E+00 0.000000000E+00 0.000000000E+00 0.259999990E+00 0.000000000E+00 0.000000000E+00 0.280000001E+00 0.000000000E+00 0.000000000E+00 0.300000012E+00 0.000000000E+00 0.000000000E+00 0.319999993E+00 0.000000000E+00 0.000000000E+00 0.340000004E+00 0.000000000E+00 0.000000000E+00 0.360000014E+00 0.000000000E+00 0.000000000E+00 0.379999995E+00 0.000000000E+00 0.000000000E+00 0.400000006E+00 0.000000000E+00 0.000000000E+00 0.419999987E+00 0.000000000E+00 0.000000000E+00 0.439999998E+00 0.000000000E+00 0.000000000E+00 0.460000008E+00 0.000000000E+00 0.000000000E+00 0.479999989E+00 0.000000000E+00 0.000000000E+00 0.500000000E+00 0.000000000E+00 0.000000000E+00 0.519999981E+00 0.000000000E+00 0.000000000E+00 0.540000021E+00 0.000000000E+00 0.000000000E+00 0.560000002E+00 0.000000000E+00 0.000000000E+00 0.579999983E+00 0.000000000E+00 0.000000000E+00 0.600000024E+00 0.000000000E+00 0.000000000E+00 0.620000005E+00 0.000000000E+00 0.000000000E+00 0.639999986E+00 0.000000000E+00 0.000000000E+00 0.660000026E+00 0.000000000E+00 0.000000000E+00 0.680000007E+00 0.000000000E+00 0.000000000E+00 0.699999988E+00 0.000000000E+00 0.000000000E+00 0.720000029E+00 0.000000000E+00 0.000000000E+00 0.740000010E+00 0.000000000E+00 0.000000000E+00 0.759999990E+00 0.000000000E+00 0.000000000E+00 0.779999971E+00 0.000000000E+00 0.000000000E+00 0.800000012E+00 0.000000000E+00 0.000000000E+00 0.819999993E+00 0.000000000E+00 0.000000000E+00 0.839999974E+00 0.000000000E+00 0.000000000E+00 0.860000014E+00 0.000000000E+00 0.000000000E+00 0.879999995E+00 0.000000000E+00 0.000000000E+00 0.899999976E+00 0.000000000E+00 0.000000000E+00 0.920000017E+00 0.000000000E+00 0.000000000E+00 0.939999998E+00 0.000000000E+00 0.000000000E+00 0.959999979E+00 0.000000000E+00 0.000000000E+00 0.980000019E+00 0.000000000E+00 0.000000000E+00 0.100000000E+01 0.000000000E+00 0.000000000E+00 0.101999998E+01 0.000000000E+00 0.000000000E+00 0.103999996E+01 0.000000000E+00 0.000000000E+00 0.105999994E+01 0.000000000E+00 0.000000000E+00 0.108000004E+01 0.000000000E+00 0.000000000E+00 0.110000002E+01 0.000000000E+00 0.000000000E+00 0.112000000E+01 0.000000000E+00 0.000000000E+00 0.113999999E+01 0.000000000E+00 0.000000000E+00 0.115999997E+01 0.000000000E+00 0.000000000E+00 0.117999995E+01 0.000000000E+00 0.000000000E+00 0.120000005E+01 0.000000000E+00 0.000000000E+00 0.122000003E+01 0.000000000E+00 0.000000000E+00 0.124000001E+01 0.000000000E+00 0.000000000E+00 0.125999999E+01 0.000000000E+00 0.000000000E+00 0.127999997E+01 0.000000000E+00 0.000000000E+00 0.129999995E+01 0.000000000E+00 0.000000000E+00 0.132000005E+01 0.000000000E+00 0.000000000E+00 0.134000003E+01 0.000000000E+00 0.000000000E+00 0.136000001E+01 0.000000000E+00 0.000000000E+00 0.138000000E+01 0.000000000E+00 0.000000000E+00 0.139999998E+01 0.000000000E+00 0.000000000E+00 0.141999996E+01 0.000000000E+00 0.000000000E+00 0.144000006E+01 0.000000000E+00 0.000000000E+00 0.146000004E+01 0.000000000E+00 0.000000000E+00 0.148000002E+01 0.000000000E+00 0.000000000E+00 0.150000000E+01 0.000000000E+00 0.000000000E+00 0.151999998E+01 0.000000000E+00 0.000000000E+00 0.153999996E+01 0.000000000E+00 0.000000000E+00 0.155999994E+01 0.000000000E+00 0.000000000E+00 0.158000004E+01 0.000000000E+00 0.000000000E+00 0.160000002E+01 0.000000000E+00 0.000000000E+00 0.162000000E+01 0.000000000E+00 0.000000000E+00 0.163999999E+01 0.000000000E+00 0.000000000E+00 0.165999997E+01 0.000000000E+00 0.000000000E+00 0.167999995E+01 0.000000000E+00 0.000000000E+00 0.170000005E+01 0.000000000E+00 0.000000000E+00 0.172000003E+01 0.000000000E+00 0.000000000E+00 0.174000001E+01 0.000000000E+00 0.000000000E+00 0.175999999E+01 0.000000000E+00 0.000000000E+00 0.177999997E+01 0.000000000E+00 0.000000000E+00 0.179999995E+01 0.000000000E+00 0.000000000E+00 0.182000005E+01 0.000000000E+00 0.000000000E+00 0.184000003E+01 0.000000000E+00 0.000000000E+00 0.186000001E+01 0.000000000E+00 0.000000000E+00 0.188000000E+01 0.000000000E+00 0.000000000E+00 0.189999998E+01 0.000000000E+00 0.000000000E+00 0.191999996E+01 0.000000000E+00 0.000000000E+00 0.194000006E+01 0.000000000E+00 0.000000000E+00 0.196000004E+01 0.000000000E+00 0.000000000E+00 0.198000002E+01 0.000000000E+00 0.000000000E+00 0.200000000E+01 0.000000000E+00 0.000000000E+00
0.000000000E+00 0.999999978E-02 0.000000000E+00 0.199999996E-01 0.999999978E-02 0.000000000E+00 0.399999991E-01 0.999999978E-02 0.000000000E+00 0.599999987E-01 0.999999978E-02 0.000000000E+00 0.799999982E-01 0.999999978E-02 0.000000000E+00 0.100000001E+00 0.999999978E-02 0.000000000E+00 0.119999997E+00 0.999999978E-02 0.000000000E+00 0.140000001E+00 0.999999978E-02 0.000000000E+00 0.159999996E+00 0.999999978E-02 0.000000000E+00 0.180000007E+00 0.999999978E-02 0.000000000E+00 0.200000003E+00 0.999999978E-02 0.000000000E+00 0.219999999E+00 0.999999978E-02 0.000000000E+00 0.239999995E+00 0.999999978E-02 0.000000000E+00 0.259999990E+00 0.999999978E-02 0.000000000E+00 0.280000001E+00 0.999999978E-02 0.000000000E+00 0.300000012E+00 0.999999978E-02 0.000000000E+00 0.319999993E+00 0.999999978E-02 0.000000000E+00 0.340000004E+00 0.999999978E-02 0.000000000E+00 0.360000014E+00 0.999999978E-02 0.000000000E+00 0.379999995E+00 0.999999978E-02 0.000000000E+00 0.400000006E+00 0.999999978E-02 0.000000000E+00 0.419999987E+00 0.999999978E-02 0.000000000E+00 0.439999998E+00 0.999999978E-02 0.000000000E+00 0.460000008E+00 0.999999978E-02 0.000000000E+00 0.479999989E+00 0.999999978E-02 0.000000000E+00 0.500000000E+00 0.999999978E-02 0.000000000E+00 0.519999981E+00 0.999999978E-02 0.000000000E+00 0.540000021E+00 0.999999978E-02 0.000000000E+00 0.560000002E+00 0.999999978E-02 0.000000000E+00 0.579999983E+00 0.999999978E-02 0.000000000E+00 0.600000024E+00 0.999999978E-02 0.000000000E+00 0.620000005E+00 0.999999978E-02 0.000000000E+00 0.639999986E+00 0.999999978E-02 0.000000000E+00 0.660000026E+00 0.999999978E-02 0.000000000E+00 0.680000007E+00 0.999999978E-02 0.000000000E+00 0.699999988E+00 0.999999978E-02 0.000000000E+00 0.720000029E+00 0.999999978E-02 0.000000000E+00 0.740000010E+00 0.999999978E-02 0.000000000E+00 0.759999990E+00 0.999999978E-02 0.000000000E+00 0.779999971E+00 0.999999978E-02 0.000000000E+00 0.800000012E+00 0.999999978E-02 0.000000000E+00 0.819999993E+00 0.999999978E-02 0.000000000E+00 0.839999974E+00 0.999999978E-02 0.000000000E+00 0.860000014E+00 0.999999978E-02 0.000000000E+00 0.879999995E+00 0.999999978E-02 0.000000000E+00 0.899999976E+00 0.999999978E-02 0.000000000E+00 0.920000017E+00 0.999999978E-02 0.000000000E+00 0.939999998E+00 0.999999978E-02 0.000000000E+00 0.959999979E+00 0.999999978E-02 0.000000000E+00 0.980000019E+00 0.999999978E-02 0.000000000E+00 0.100000000E+01 0.999999978E-02 0.000000000E+00 0.101999998E+01 0.999999978E-02 0.000000000E+00 0.103999996E+01 0.999999978E-02 0.000000000E+00 0.105999994E+01 0.999999978E-02 0.000000000E+00 0.108000004E+01 0.999999978E-02 0.000000000E+00 0.110000002E+01 0.999999978E-02 0.000000000E+00 0.112000000E+01 0.999999978E-02 0.000000000E+00 0.113999999E+01 0.999999978E-02 0.000000000E+00 0.115999997E+01 0.999999978E-02 0.000000000E+00 0.117999995E+01 0.999999978E-02 0.000000000E+00 0.120000005E+01 0.999999978E-02 0.000000000E+00 0.122000003E+01 0.999999978E-02 0.000000000E+00 0.124000001E+01 0.999999978E-02 0.000000000E+00 0.125999999E+01 0.999999978E-02 0.000000000E+00 0.127999997E+01 0.999999978E-02 0.000000000E+00 0.129999995E+01 0.999999978E-02 0.000000000E+00 0.132000005E+01 0.999999978E-02 0.000000000E+00 0.134000003E+01 0.999999978E-02 0.000000000E+00 0.136000001E+01 0.999999978E-02 0.000000000E+00 0.138000000E+01 0.999999978E-02 0.000000000E+00 0.139999998E+01 0.999999978E-02 0.000000000E+00 0.141999996E+01 0.999999978E-02 0.000000000E+00 0.144000006E+01 0.999999978E-02 0.000000000E+00 0.146000004E+01 0.999999978E-02 0.000000000E+00 0.148000002E+01 0.999999978E-02 0.000000000E+00 0.150000000E+01 0.999999978E-02 0.000000000E+00 0.151999998E+01 0.999999978E-02 0.000000000E+00 0.153999996E+01 0.999999978E-02 0.000000000E+00 0.155999994E+01 0.999999978E-02 0.000000000E+00 0.158000004E+01 0.999999978E-02 0.000000000E+00 0.160000002E+01 0.999999978E-02 0.000000000E+00 0.162000000E+01 0.999999978E-02 0.000000000E+00 0.163999999E+01 0.999999978E-02 0.000000000E+00 0.165999997E+01 0.999999978E-02 0.000000000E+00 0.167999995E+01 0.999999978E-02 0.000000000E+00 0.170000005E+01 0.999999978E-02 0.000000000E+00 0.172000003E+01 0.999999978E-02 0.000000000E+00 0.174000001E+01 0.999999978E-02 0.000000000E+00 0.175999999E+01 0.999999978E-02 0.000000000E+00 0.177999997E+01 0.999999978E-02 0.000000000E+00 0.179999995E+01 0.999999978E-02 0.000000000E+00 0.182000005E+01 0.999999978E-02 0.000000000E+00 0.184000003E+01 0.999999978E-02 0.000000000E+00 0.186000001E+01 0.999999978E-02 0.000000000E+00 0.188000000E+01 0.999999978E-02 0.000000000E+00 0.189999998E+01 0.999999978E-02 0.000000000E+00 0.191999996E+01 0.999999978E-02 0.000000000E+00 0.194000006E+01 0.999999978E-02 0.000000000E+00 0.196000004E+01 0.999999978E-02 0.000000000E+00 0.198000002E+01 0.999999978E-02 0.000000000E+00 0.200000000E+01 0.999999978E-02 0.000000000E+00
[...]
<CellData Scalars="Temperature, U, V">
<DataArray type="Float32" Name="Temp, K"/>
0.514584576E-20 0.132413082E-18 0.174826566E-17 0.136795565E-16 0.699837481E-16 0.252302898E-15 0.680220396E-15 0.143717097E-14 0.246737500E-14 0.353875796E-14 0.432995153E-14 0.459254064E-14 0.427379283E-14 0.352169554E-14 0.258756389E-14 0.170416052E-14 0.100997350E-14 0.540170486E-15 0.261243913E-15 0.114400707E-15 0.453941599E-16 0.163255856E-16 0.532056301E-17 0.157044923E-17 0.419443204E-18 0.108693342E-18 0.272413388E-19 0.658097585E-20 0.152700671E-20 0.339023463E-21 0.717275438E-22 0.143979011E-22 0.272895149E-23 0.485860122E-24 0.807895749E-25 0.124672317E-25 0.177285992E-26 0.230458968E-27 0.271371203E-28 0.286418621E-29 0.267619979E-30 0.836792404E-31 0.315967111E-25 0.379076096E-22 0.122566081E-16 0.370478743E-14 0.515642054E-12 0.393046637E-10 0.160473002E-08 0.227097052E-08 0.756150351E-10 0.132277164E-11 0.133720871E-13 0.762601034E-16 0.197512907E-18 0.632366432E-24 0.456388726E-27 0.333642795E-31 0.358251464E-30 0.349951778E-29 0.306217715E-28 0.242586308E-27 0.175592907E-26 0.117071943E-25 0.724117797E-25 0.418174673E-24 0.226783429E-23 0.116106418E-22 0.563881120E-22 0.260937593E-21 0.115530030E-20 0.491284861E-20 0.201381708E-19 0.798426587E-19 0.307173986E-18 0.115030445E-17 0.390787294E-17 0.120514061E-16 0.337453162E-16 0.857822294E-16 0.197840731E-15 0.413483633E-15 0.781690655E-15 0.133326131E-14 0.204432249E-14 0.280453477E-14 0.342055219E-14 0.367814825E-14 0.344890683E-14 0.277937027E-14 0.188827636E-14 0.105425289E-14 0.467595274E-15 0.157564367E-15 0.380647077E-16 0.611800814E-17 0.592346053E-18 0.297289843E-19 0.564026914E-21 0.770785090E-27
0.162578730E-18 0.386264105E-17 0.476328051E-16 0.352336642E-15 0.172502622E-14 0.602160127E-14 0.158850441E-13 0.331373621E-13 0.566007236E-13 0.812820135E-13 0.100123279E-12 0.107405201E-12 0.101495784E-12 0.852265781E-13 0.640111607E-13 0.432143165E-13 0.263193025E-13 0.144991221E-13 0.723809305E-14 0.327815494E-14 0.134780486E-14 0.503133124E-15 0.170485206E-15 0.524046380E-16 0.145988577E-16 0.394271089E-17 0.102914606E-17 0.258802144E-18 0.624857728E-19 0.144319866E-19 0.317608133E-20 0.663171710E-21 0.130771883E-21 0.242298595E-22 0.419472684E-23 0.674331269E-24 0.999626297E-25 0.135575299E-25 0.166723499E-26 0.183976131E-27 0.179949189E-28 0.157762142E-27 0.725497515E-22 0.420350117E-19 0.356101121E-16 0.915295417E-14 0.120693668E-11 0.899119945E-10 0.364057051E-08 0.513942933E-08 0.170966866E-09 0.301975350E-11 0.312820516E-13 0.189005754E-15 0.586840546E-18 0.607232813E-21 0.890549710E-24 0.424716566E-29 0.240217962E-28 0.224285544E-27 0.187817709E-26 0.142548783E-25 0.989494796E-25 0.633181128E-24 0.376143040E-23 0.208742456E-22 0.108831680E-21 0.535813714E-21 0.250277833E-20 0.111391768E-19 0.474282907E-19 0.193903866E-18 0.763847943E-18 0.290882198E-17 0.107413654E-16 0.385756175E-16 0.125872855E-15 0.373425089E-15 0.100753150E-14 0.247205359E-14 0.551274114E-14 0.111616505E-13 0.204839570E-13 0.339917134E-13 0.508340487E-13 0.682031268E-13 0.816057359E-13 0.863907741E-13 0.800767195E-13 0.640967653E-13 0.434998954E-13 0.244264566E-13 0.109859563E-13 0.379057832E-14 0.948200233E-15 0.159723163E-15 0.164063135E-16 0.883708481E-18 0.181833928E-19 0.257711983E-25
0.330921669E-17 0.729015648E-16 0.843174395E-15 0.591894426E-14 0.278264418E-13 0.943037627E-13 0.243891441E-12 0.502966158E-12 0.855276353E-12 0.123002433E-11 0.152501796E-11 0.165373628E-11 0.158572526E-11 0.135561907E-11 0.103964840E-11 0.718592341E-12 0.449161487E-12 0.254509006E-12 0.130949898E-12 0.612428877E-13 0.260479674E-13 0.100759423E-13 0.354363116E-14 0.113231936E-14 0.328409311E-15 0.922576573E-16 0.250307285E-16 0.653874818E-17 0.163923199E-17 0.392989218E-18 0.897559789E-19 0.194489339E-19 0.398034949E-20 0.765582415E-21 0.137636778E-21 0.229883376E-22 0.354280194E-23 0.499913087E-24 0.640181764E-25 0.736388559E-26 0.751776980E-27 0.389734142E-25 0.250567088E-21 0.138198991E-18 0.728041097E-16 0.167425261E-13 0.211198116E-11 0.154174964E-09 0.619407192E-08 0.872154793E-08 0.289962998E-09 0.516699444E-11 0.546830715E-13 0.346250261E-15 0.121339982E-17 0.198909876E-20 0.305957809E-23 0.492698813E-27 0.100096434E-26 0.896012098E-26 0.720195432E-25 0.525195882E-24 0.350589705E-23 0.215906812E-22 0.123512469E-21 0.660382803E-21 0.331830793E-20 0.157486157E-19 0.709169921E-19 0.304265955E-18 0.124860184E-17 0.491827323E-17 0.186580149E-16 0.683813669E-16 0.242833149E-15 0.837892879E-15 0.263073843E-14 0.752102916E-14 0.195857802E-13 0.464577582E-13 0.100330646E-12 0.197086081E-12 0.351607903E-12 0.568414727E-12 0.830072502E-12 0.109035827E-11 0.128103962E-11 0.133608044E-11 0.122478004E-11 0.973896202E-12 0.660052254E-12 0.372475515E-12 0.169630748E-12 0.598016509E-13 0.154447191E-13 0.271707904E-14 0.294932055E-15 0.169798392E-16 0.377360778E-18 0.552780573E-24
0.482565953E-16 0.988702808E-15 0.107573210E-13 0.718650061E-13 0.325199855E-12 0.107201064E-11 0.272173473E-11 0.555361182E-11 0.940597947E-11 0.135488348E-10 0.169055690E-10 0.185260730E-10 0.180168901E-10 0.156717053E-10 0.122641177E-10 0.867213419E-11 0.555852543E-11 0.323674572E-11 0.171483390E-11 0.827346438E-12 0.363642384E-12 0.145602578E-12 0.530880034E-13 0.176131845E-13 0.531181646E-14 0.155013139E-14 0.436538864E-15 0.118286311E-15 0.307424851E-16 0.763775812E-17 0.180726494E-17 0.405669406E-18 0.860039070E-19 0.171383600E-19 0.319307691E-20 0.552910210E-21 0.883889362E-22 0.129460973E-22 0.172221825E-23 0.205985572E-24 0.219113404E-25 0.180630942E-24 0.579542457E-21 0.304471716E-18 0.127287691E-15 0.269598678E-13 0.327627964E-11 0.234850223E-09 0.936488043E-08 0.131506814E-07 0.437152953E-09 0.785448095E-11 0.847242740E-13 0.557873951E-15 0.213479414E-17 0.436877904E-20 0.704424389E-23 0.479789440E-26 0.290815915E-25 0.250234469E-24 0.193543769E-23 0.135939714E-22 0.874708283E-22 0.519582162E-21 0.286846122E-20 0.148065378E-19 0.718464394E-19 0.329317947E-18 0.143219912E-17 0.593367631E-17 0.235066301E-16 0.893499388E-16 0.326904293E-15 0.115468357E-14 0.394852963E-14 0.131064135E-13 0.396424769E-13 0.109341200E-12 0.275124189E-12 0.631560396E-12 0.132216005E-11 0.252216043E-11 0.437797324E-11 0.690050621E-11 0.984746312E-11 0.126726954E-10 0.146279655E-10 0.150372128E-10 0.136363828E-10 0.107722468E-10 0.728942687E-11 0.413154797E-11 0.190330239E-11 0.684525895E-12 0.182149705E-12 0.333816565E-13 0.381840759E-14 0.234281875E-15 0.560736101E-17 0.846490744E-23
0.539440291E-15 0.103098767E-13 0.105834978E-12 0.674682966E-12 0.294536964E-11 0.946078285E-11 0.236093853E-10 0.477012006E-10 0.804966302E-10 0.116142811E-09 0.145817525E-09 0.161424416E-09 0.159141117E-09 0.140760195E-09 0.112322623E-09 0.811923584E-10 0.533212849E-10 0.318795754E-10 0.173752211E-10 0.863938174E-11 0.392004007E-11 0.162292911E-11 0.612777190E-12 0.210841232E-12 0.660371822E-13 0.199935825E-13 0.583626284E-14 0.163799263E-14 0.440674502E-15 0.113276932E-15 0.277234479E-16 0.643513719E-17 0.141068891E-17 0.290692490E-18 0.560151783E-19 0.100350458E-19 0.166044442E-20 0.251870362E-21 0.347251900E-22 0.430799583E-23 0.475378626E-24 0.561265166E-24 0.112142154E-20 0.561554720E-18 0.203387341E-15 0.403990873E-13 0.475420875E-11 0.335168421E-09 0.132676821E-07 0.185798861E-07 0.617837781E-09 0.111888207E-10 0.122792130E-12 0.836055347E-15 0.342389598E-17 0.803719299E-20 0.135831119E-22 0.727468791E-25 0.630321163E-24 0.522677660E-23 0.389963386E-22 0.264428776E-21 0.164378711E-20 0.943847329E-20 0.503906377E-19 0.251616529E-18 0.118127337E-17 0.523887148E-17 0.220426444E-16 0.883335191E-16 0.338360122E-15 0.124295817E-14 0.439220803E-14 0.149723577E-13 0.493660763E-13 0.157825752E-12 0.460419029E-12 0.122656009E-11 0.298526590E-11 0.663872169E-11 0.134856839E-10 0.250052774E-10 0.422679045E-10 0.650093313E-10 0.907277031E-10 0.114464646E-09 0.129886185E-09 0.131663097E-09 0.118151919E-09 0.927370958E-10 0.626472693E-10 0.356463851E-10 0.165961880E-10 0.608071753E-11 0.166388593E-11 0.316891668E-12 0.380931316E-13 0.248363316E-14 0.638318007E-16 0.990116235E-22
0.483034938E-14 0.863746195E-13 0.838985402E-12 0.511691470E-11 0.215965960E-10 0.677036691E-10 0.166248473E-09 0.332811945E-09 0.559744195E-09 0.808943745E-09 0.102170583E-08 0.114213472E-08 0.114081755E-08 0.102541342E-08 0.833763170E-09 0.615614726E-09 0.413887147E-09 0.253846222E-09 0.142195727E-09 0.727947702E-10 0.340631065E-10 0.145661243E-10 0.568904906E-11 0.202768748E-11 0.658776853E-12 0.206664181E-12 0.624480597E-13 0.181280738E-13 0.504103400E-14 0.133865701E-14 0.338316288E-15 0.810698543E-16 0.183439361E-16 0.390161243E-17 0.776085770E-18 0.143554649E-18 0.245341996E-19 0.384578643E-20 0.548252422E-21 0.703820501E-22 0.804183108E-23 0.199896979E-23 0.196011291E-20 0.936240034E-18 0.306523806E-15 0.577859158E-13 0.661077920E-11 0.458916904E-09 0.180344202E-07 0.251847769E-07 0.838198289E-09 0.152964273E-10 0.170560994E-12 0.119580554E-14 0.517277148E-17 0.133734450E-19 0.237697328E-22 0.119502951E-23 0.106497035E-22 0.853142972E-22 0.615459181E-21 0.403822709E-20 0.243050706E-19 0.135185145E-18 0.699364664E-18 0.338465618E-17 0.154023412E-16 0.662092369E-16 0.269970788E-15 0.104814673E-14 0.388806334E-14 0.138237132E-13 0.472456648E-13 0.155638116E-12 0.495420165E-12 0.152738575E-11 0.430255397E-11 0.110830121E-10 0.261194625E-10 0.563279839E-10 0.111136052E-09 0.200487071E-09 0.330312749E-09 0.496142294E-09 0.677679357E-09 0.838774439E-09 0.936222655E-09 0.936302813E-09 0.831755054E-09 0.648769982E-09 0.437494513E-09 0.249812282E-09 0.117452825E-09 0.437847120E-10 0.122981243E-10 0.242848536E-11 0.305965838E-12 0.211373531E-13 0.581647043E-15 0.924273360E-21
0.357490255E-13 0.599865535E-12 0.552891543E-11 0.323411020E-10 0.132233058E-09 0.405180084E-09 0.979953896E-09 0.194482963E-08 0.326063354E-08 0.471969930E-08 0.599502181E-08 0.676430645E-08 0.684169255E-08 0.624519725E-08 0.517044763E-08 0.389644406E-08 0.267955058E-08 0.168438297E-08 0.968833902E-09 0.510153753E-09 0.245934911E-09 0.108510451E-09 0.437907141E-10 0.161493510E-10 0.543601232E-11 0.176478005E-11 0.551297831E-12 0.165302952E-12 0.474447989E-13 0.129961366E-13 0.338638055E-14 0.836349215E-15 0.195001728E-15 0.427330703E-16 0.875819081E-17 0.166944238E-17 0.294099647E-18 0.475389972E-19 0.699222800E-20 0.926724105E-21 0.109399420E-21 0.137639567E-22 0.320948198E-20 0.146313888E-17 0.443486705E-15 0.800072831E-13 0.892376537E-11 0.610538065E-09 0.238168933E-07 0.331668453E-07 0.110544740E-08 0.203273769E-10 0.230054691E-12 0.165564152E-14 0.749770983E-17 0.208709317E-19 0.403035347E-22 0.166416487E-22 0.144723462E-21 0.112271936E-20 0.784930101E-20 0.499440894E-19 0.291659283E-18 0.157457190E-17 0.790872264E-17 0.371660256E-16 0.164230093E-15 0.685441137E-15 0.271300164E-14 0.102206477E-13 0.367703474E-13 0.126714204E-12 0.419438545E-12 0.133701915E-11 0.411393402E-11 0.122454746E-10 0.333467039E-10 0.831491404E-10 0.189948043E-09 0.397642225E-09 0.762756747E-09 0.133995992E-08 0.215363860E-08 0.316177440E-08 0.422999991E-08 0.513997422E-08 0.564694203E-08 0.557467272E-08 0.490429741E-08 0.380238196E-08 0.255960320E-08 0.146626988E-08 0.695707769E-09 0.263573940E-09 0.758653487E-10 0.154990396E-10 0.204136989E-11 0.149006960E-12 0.437727992E-14 0.710453877E-20
0.223934586E-12 0.353638690E-11 0.310137263E-10 0.174403658E-09 0.692086000E-09 0.207554884E-08 0.494852692E-08 0.974052483E-08 0.162811951E-07 0.236007072E-07 0.301389242E-07 0.343078774E-07 0.351170897E-07 0.325316307E-07 0.274031979E-07 0.210603996E-07 0.148017030E-07 0.952781409E-08 0.562199221E-08 0.304200021E-08 0.150930091E-08 0.686379009E-09 0.285901969E-09 0.108971158E-09 0.379590838E-10 0.127373129E-10 0.410828966E-11 0.127068625E-11 0.375908831E-12 0.106060627E-12 0.284502815E-13 0.723049431E-14 0.173428514E-14 0.390906870E-15 0.824003445E-16 0.161555736E-16 0.292796356E-17 0.487055215E-18 0.737549519E-19 0.100697244E-19 0.122537134E-20 0.135571224E-21 0.503085392E-20 0.218693236E-17 0.622781186E-15 0.108147832E-12 0.117862924E-10 0.795245481E-09 0.307897068E-07 0.427573390E-07 0.142800771E-08 0.264600356E-10 0.303723057E-12 0.223842284E-14 0.105456545E-16 0.311726988E-19 0.802855361E-22 0.191829793E-21 0.161989439E-20 0.121973484E-19 0.828259114E-19 0.512153736E-18 0.290776505E-17 0.152667283E-16 0.745880537E-16 0.340969063E-15 0.146555102E-14 0.594864505E-14 0.228909875E-13 0.838054872E-13 0.292839429E-12 0.979483096E-12 0.314430686E-11 0.971101324E-11 0.289186852E-10 0.832051580E-10 0.219289545E-09 0.529868371E-09 0.117454335E-08 0.238924169E-08 0.445999504E-08 0.763686181E-08 0.119845209E-07 0.172115264E-07 0.225716299E-07 0.269463971E-07 0.291580200E-07 0.284301755E-07 0.247804586E-07 0.191027585E-07 0.128374706E-07 0.737615613E-08 0.352986973E-08 0.135771705E-08 0.399862837E-09 0.843428730E-10 0.115841850E-10 0.890945954E-12 0.278594269E-13 0.460457907E-19
0.120989189E-11 0.180333717E-10 0.150879073E-09 0.817501233E-09 0.315401216E-08 0.926889232E-08 0.218012044E-07 0.425768185E-07 0.709548189E-07 0.102982625E-06 0.132169120E-06 0.151707169E-06 0.157052810E-06 0.147547993E-06 0.126360376E-06 0.989574147E-07 0.710188388E-07 0.467703352E-07 0.282847914E-07 0.157116258E-07 0.801496114E-08 0.375298281E-08 0.161177960E-08 0.634216291E-09 0.228359068E-09 0.791063326E-10 0.263111980E-10 0.838374422E-11 0.255289626E-11 0.740869172E-12 0.204291377E-12 0.533457962E-13 0.131421363E-13 0.304178108E-14 0.658325018E-15 0.132522354E-15 0.246625521E-16 0.421364315E-17 0.655588974E-18 0.920077777E-19 0.115159253E-19 0.127567124E-20 0.771581635E-20 0.316530650E-17 0.855069702E-15 0.143535195E-12 0.153099495E-10 0.101916142E-08 0.391537576E-07 0.542216263E-07 0.181572313E-08 0.339066310E-10 0.394534638E-12 0.297240908E-14 0.145024630E-16 0.451272551E-19 0.289840876E-21 0.185366773E-20 0.152189568E-19 0.111473212E-18 0.736771426E-18 0.443639793E-17 0.245359405E-16 0.125516320E-15 0.597558769E-15 0.266181586E-14 0.111470213E-13 0.440719509E-13 0.165133315E-12 0.588376515E-12 0.199967126E-11 0.650056701E-11 0.202640873E-10 0.607126155E-10 0.175189821E-09 0.487794249E-09 0.124560073E-08 0.291971336E-08 0.628656860E-08 0.124385418E-07 0.226172396E-07 0.377827867E-07 0.579438613E-07 0.814728338E-07 0.104818383E-06 0.123031711E-06 0.131212758E-06 0.126436746E-06 0.109241370E-06 0.837583869E-07 0.562002285E-07 0.323849569E-07 0.156237050E-07 0.609566086E-08 0.183433502E-08 0.398713368E-09 0.569699600E-10 0.460421415E-11 0.152807319E-12 0.256416271E-18
0.572635168E-11 0.807816661E-10 0.646438680E-09 0.338187789E-08 0.127055753E-07 0.366287054E-07 0.850474535E-07 0.164838056E-06 0.273880630E-06 0.397904586E-06 0.513010036E-06 0.593434663E-06 0.620935054E-06 0.591181561E-06 0.514331305E-06 0.410105713E-06 0.300281414E-06 0.202140484E-06 0.125175745E-06 0.713135861E-07 0.373668776E-07 0.179971700E-07 0.796064992E-08 0.323027849E-08 0.120088828E-08 0.428958785E-09 0.146947732E-09 0.481763136E-10 0.150803935E-10 0.449540925E-11 0.127245599E-11 0.340899130E-12 0.861278076E-13 0.204374159E-13 0.453395942E-14 0.935479069E-15 0.178446681E-15 0.312551617E-16 0.498663103E-17 0.717927580E-18 0.922263473E-19 0.104404604E-19 0.122320197E-19 0.447283151E-17 0.115373193E-14 0.187796379E-12 0.196286130E-10 0.128948063E-08 0.491402297E-07 0.678644341E-07 0.228011099E-08 0.429200529E-10 0.506092781E-12 0.389258819E-14 0.196035684E-16 0.639324987E-19 0.181202274E-20 0.152391807E-19 0.121895442E-18 0.870360475E-18 0.561053200E-17 0.329616816E-16 0.177911462E-15 0.888358414E-15 0.412828527E-14 0.179486976E-13 0.733489807E-13 0.282906402E-12 0.103365298E-11 0.358936947E-11 0.118810647E-10 0.375871730E-10 0.113922621E-09 0.331514288E-09 0.928024213E-09 0.250344834E-08 0.620058271E-08 0.141144811E-07 0.295497511E-07 0.569248222E-07 0.100920552E-06 0.164628574E-06 0.246950037E-06 0.340242906E-06 0.429779817E-06 0.496362702E-06 0.522115215E-06 0.497522478E-06 0.426323624E-06 0.325239711E-06 0.217934954E-06 0.125940716E-06 0.612291302E-07 0.242127225E-07 0.743550821E-08 0.166251601E-08 0.246568460E-09 0.208847210E-10 0.733577587E-12 0.124605443E-17
0.240547460E-10 0.322044696E-09 0.247085663E-08 0.125055735E-07 0.458176537E-07 0.129700197E-06 0.297440096E-06 0.572241674E-06 0.947849742E-06 0.137803909E-05 0.178397238E-05 0.207851190E-05 0.219667891E-05 0.211790802E-05 0.187038290E-05 0.151718564E-05 0.113241299E-05 0.778522349E-06 0.493200446E-06 0.287904214E-06 0.154800219E-06 0.766111512E-07 0.348655860E-07 0.145739545E-07 0.558771251E-08 0.205573314E-08 0.724464710E-09 0.244079007E-09 0.784413229E-10 0.239873399E-10 0.696037108E-11 0.191046181E-11 0.494280832E-12 0.120065429E-12 0.272598208E-13 0.575536102E-14 0.112338316E-14 0.201353019E-15 0.328809852E-16 0.484677174E-17 0.637740019E-18 0.739150048E-19 0.236502796E-19 0.620627162E-17 0.153558031E-14 0.242927667E-12 0.249030588E-10 0.161466684E-08 0.610152853E-07 0.840357757E-07 0.283465673E-08 0.538019837E-10 0.642777552E-12 0.504235114E-14 0.261477466E-16 0.897729361E-19 0.123786916E-19 0.107994439E-18 0.843344342E-18 0.588193410E-17 0.370516729E-16 0.212777535E-15 0.112283016E-14 0.548182232E-14 0.249067819E-13 0.105859169E-12 0.422791142E-12 0.159312873E-11 0.568395157E-11 0.192620676E-10 0.621785054E-10 0.191674357E-09 0.565534786E-09 0.160031999E-08 0.435102221E-08 0.113843877E-07 0.273794853E-07 0.605873680E-07 0.123459373E-06 0.231785521E-06 0.401033304E-06 0.639399559E-06 0.938964149E-06 0.126874056E-05 0.157477064E-05 0.179094388E-05 0.185940223E-05 0.175329490E-05 0.149087020E-05 0.113218209E-05 0.757821169E-06 0.439189677E-06 0.215117225E-06 0.861631477E-07 0.269716729E-07 0.619332940E-08 0.951383194E-09 0.842415512E-10 0.312288780E-11 0.535373957E-17
0.907005304E-10 0.115541887E-08 0.851899085E-08 0.417891393E-07 0.149505894E-06 0.415922642E-06 0.942496342E-06 0.180006953E-05 0.297192901E-05 0.432226489E-05 0.561563274E-05 0.658586623E-05 0.702529951E-05 0.685396344E-05 0.613929569E-05 0.506196830E-05 0.384808254E-05 0.269939665E-05 0.174786771E-05 0.104447486E-05 0.575719469E-06 0.292483151E-06 0.136810215E-06 0.588470179E-07 0.232431585E-07 0.879747120E-08 0.318573878E-08 0.110166820E-08 0.363053476E-09 0.113747421E-09 0.337911955E-10 0.948958793E-11 0.251069695E-11 0.623405516E-12 0.144635443E-12 0.311987069E-13 0.622105339E-14 0.113912569E-14 0.190058920E-15 0.286302397E-16 0.385115979E-17 0.456411792E-18 0.700152166E-19 0.849285939E-17 0.202177320E-14 0.311382349E-12 0.313266114E-10 0.200468242E-08 0.750854809E-07 0.103137893E-06 0.349516971E-08 0.669128572E-10 0.809922604E-12 0.647561305E-14 0.345151798E-16 0.129095002E-18 0.772767832E-19 0.667289805E-18 0.509759482E-17 0.347951374E-16 0.214579227E-15 0.120665614E-14 0.623590060E-14 0.298153802E-13 0.132653938E-12 0.551987004E-12 0.215768679E-11 0.795413648E-11 0.277486957E-10 0.918898568E-10 0.289634622E-09 0.871049066E-09 0.250482390E-08 0.690050239E-08 0.182424014E-07 0.463467309E-07 0.108347578E-06 0.233317309E-06 0.463204998E-06 0.848334366E-06 0.143377758E-05 0.223631173E-05 0.321783023E-05 0.426777206E-05 0.520944832E-05 0.583864130E-05 0.598759016E-05 0.559071350E-05 0.472031888E-05 0.357000931E-05 0.238773123E-05 0.138790733E-05 0.684751853E-06 0.277651395E-06 0.885057077E-07 0.208399378E-07 0.330915673E-08 0.305571152E-09 0.119225159E-10 0.205693514E-16