<?xml version="1.0"?>
<VTKFile type="StructuredGrid">
<StructuredGrid WholeExtent="     0   100     0   100     0     0">
<Piece Extent="     0   100     0   100     0     0">
<Points>
<DataArray type="Float32" NumberOfComponents="3"/>
0.000000000E+00 0.000000000E+00 0.000000000E+00 0.199999996E-01 0.000000000E+00 0.000000000E+00 0.399999991E-01 0.000000000E+00 0.000000000E+00 0.599999987E-01 0.000000000E+00 0.000000000E+00 0.799999982E-01 0.000000000E+00 0.000000000E+00 0.100000001E+00 0.000000000E+00 0.000000000E+00 0.119999997E+00 0.000000000E+00 0.000000000E+00 0.140000001E+00 0.000000000E+00 0.000000000E+00 0.159999996E+00 0.000000000E+00 0.000000000E+00 0.180000007E+00 0.000000000E+00 0.000000000E+00 0.200000003E+00 0.000000000E+00 0.000000000E+00 0.219999999E+00 0.000000000E+00 0.000000000E+00 0.239999995E+00 0.000000000E+00 0.000000000E+00 0.259999990E+00 0.000000000E+00 0.000000000E+00 0.280000001E+00 0.000000000E+00 0.000000000E+00 0.300000012E+00 0.000000000E+00 0.000000000E+00 0.319999993E+00 0.000000000E+00 0.000000000E+00 0.340000004E+00 0.000000000E+00 0.000000000E+00 0.360000014E+00 0.000000000E+00 0.000000000E+00 0.379999995E+00 0.000000000E+00 0.000000000E+00 0.400000006E+00 0.000000000E+00 0.000000000E+00 0.419999987E+00 0.000000000E+00 0.000000000E+00 0.439999998E+00 0.000000000E+00 0.000000000E+00 0.460000008E+00 0.000000000E+00 0.000000000E+00 0.479999989E+00 0.000000000E+00 0.000000000E+00 0.500000000E+00 0.000000000E+00 0.000000000E+00 0.519999981E+00 0.000000000E+00 0.000000000E+00 0.540000021E+00 0.000000000E+00 0.000000000E+00 0.560000002E+00 0.000000000E+00 0.000000000E+00 0.579999983E+00 0.000000000E+00 0.000000000E+00 0.600000024E+00 0.000000000E+00 0.000000000E+00 0.620000005E+00 0.000000000E+00 0.000000000E+00 0.639999986E+00 0.000000000E+00 0.000000000E+00 0.660000026E+00 0.000000000E+00 0.000000000E+00 0.680000007E+00 0.000000000E+00 0.000000000E+00 0.699999988E+00 0.000000000E+00 0.000000000E+00 0.720000029E+00 0.000000000E+00 0.000000000E+00 0.740000010E+00 0.000000000E+00 0.000000000E+00 0.759999990E+00 0.000000000E+00 0.000000000E+00 0.779999971E+00 0.000000000E+00 0.000000000E+00 0.800000012E+00 0.000000000E+00 0.000000000E+00 0.819999993E+00 0.000000000E+00 0.000000000E+00 0.839999974E+00 0.000000000E+00 0.000000000E+00 0.860000014E+00 0.000000000E+00 0.000000000E+00 0.879999995E+00 0.000000000E+00 0.000000000E+00 0.899999976E+00 0.000000000E+00 0.000000000E+00 0.920000017E+00 0.000000000E+00 0.000000000E+00 0.939999998E+00 0.000000000E+00 0.000000000E+00 0.959999979E+00 0.000000000E+00 0.000000000E+00 0.980000019E+00 0.000000000E+00 0.000000000E+00 0.100000000E+01 0.000000000E+00 0.000000000E+00 0.101999998E+01 0.000000000E+00 0.000000000E+00 0.103999996E+01 0.000000000E+00 0.000000000E+00 0.105999994E+01 0.000000000E+00 0.000000000E+00 0.108000004E+01 0.000000000E+00 0.000000000E+00 0.110000002E+01 0.000000000E+00 0.000000000E+00 0.112000000E+01 0.000000000E+00 0.000000000E+00 0.113999999E+01 0.000000000E+00 0.000000000E+00 0.115999997E+01 0.000000000E+00 0.000000000E+00 0.117999995E+01 0.000000000E+00 0.000000000E+00 0.120000005E+01 0.000000000E+00 0.000000000E+00 0.122000003E+01 0.000000000E+00 0.000000000E+00 0.124000001E+01 0.000000000E+00 0.000000000E+00 0.125999999E+01 0.000000000E+00 0.000000000E+00 0.127999997E+01 0.000000000E+00 0.000000000E+00 0.129999995E+01 0.000000000E+00 0.000000000E+00 0.132000005E+01 0.000000000E+00 0.000000000E+00 0.134000003E+01 0.000000000E+00 0.000000000E+00 0.136000001E+01 0.000000000E+00 0.000000000E+00 0.138000000E+01 0.000000000E+00 0.000000000E+00 0.139999998E+01 0.000000000E+00 0.000000000E+00 0.141999996E+01 0.000000000E+00 0.000000000E+00 0.144000006E+01 0.000000000E+00 0.000000000E+00 0.146000004E+01 0.000000000E+00 0.000000000E+00 0.148000002E+01 0.000000000E+00 0.000000000E+00 0.150000000E+01 0.000000000E+00 0.000000000E+00 0.151999998E+01 0.000000000E+00 0.000000000E+00 0.153999996E+01 0.000000000E+00 0.000000000E+00 0.155999994E+01 0.000000000E+00 0.000000000E+00 0.158000004E+01 0.000000000E+00 0.000000000E+00 0.160000002E+01 0.000000000E+00 0.000000000E+00 0.162000000E+01 0.000000000E+00 0.000000000E+00 0.163999999E+01 0.000000000E+00 0.000000000E+00 0.165999997E+01 0.000000000E+00 0.000000000E+00 0.167999995E+01 0.000000000E+00 0.000000000E+00 0.170000005E+01 0.000000000E+00 0.000000000E+00 0.172000003E+01 0.000000000E+00 0.000000000E+00 0.174000001E+01 0.000000000E+00 0.000000000E+00 0.175999999E+01 0.000000000E+00 0.000000000E+00 0.177999997E+01 0.000000000E+00 0.000000000E+00 0.179999995E+01 0.000000000E+00 0.000000000E+00 0.182000005E+01 0.000000000E+00 0.000000000E+00 0.184000003E+01 0.000000000E+00 0.000000000E+00 0.186000001E+01 0.000000000E+00 0.000000000E+00 0.188000000E+01 0.000000000E+00 0.000000000E+00 0.189999998E+01 0.000000000E+00 0.000000000E+00 0.191999996E+01 0.000000000E+00 0.000000000E+00 0.194000006E+01 0.000000000E+00 0.000000000E+00 0.196000004E+01 0.000000000E+00 0.000000000E+00 0.198000002E+01 0.000000000E+00 0.000000000E+00 0.200000000E+01 0.000000000E+00 0.000000000E+00
0.000000000E+00 0.999999978E-02 0.000000000E+00 0.199999996E-01 0.999999978E-02 0.000000000E+00 0.399999991E-01 0.999999978E-02 0.000000000E+00 0.599999987E-01 0.999999978E-02 0.000000000E+00 0.799999982E-01 0.999999978E-02 0.000000000E+00 0.100000001E+00 0.999999978E-02 0.000000000E+00 0.119999997E+00 0.999999978E-02 0.000000000E+00 0.140000001E+00 0.999999978E-02 0.000000000E+00 0.159999996E+00 0.999999978E-02 0.000000000E+00 0.180000007E+00 0.999999978E-02 0.000000000E+00 0.200000003E+00 0.999999978E-02 0.000000000E+00 0.219999999E+00 0.999999978E-02 0.000000000E+00 0.239999995E+00 0.999999978E-02 0.000000000E+00 0.259999990E+00 0.999999978E-02 0.000000000E+00 0.280000001E+00 0.999999978E-02 0.000000000E+00 0.300000012E+00 0.999999978E-02 0.000000000E+00 0.319999993E+00 0.999999978E-02 0.000000000E+00 0.340000004E+00 0.999999978E-02 0.000000000E+00 0.360000014E+00 0.999999978E-02 0.000000000E+00 0.379999995E+00 0.999999978E-02 0.000000000E+00 0.400000006E+00 0.999999978E-02 0.000000000E+00 0.419999987E+00 0.999999978E-02 0.000000000E+00 0.439999998E+00 0.999999978E-02 0.000000000E+00 0.460000008E+00 0.999999978E-02 0.000000000E+00 0.479999989E+00 0.999999978E-02 0.000000000E+00 0.500000000E+00 0.999999978E-02 0.000000000E+00 0.519999981E+00 0.999999978E-02 0.000000000E+00 0.540000021E+00 0.999999978E-02 0.000000000E+00 0.560000002E+00 0.999999978E-02 0.000000000E+00 0.579999983E+00 0.999999978E-02 0.000000000E+00 0.600000024E+00 0.999999978E-02 0.000000000E+00 0.620000005E+00 0.999999978E-02 0.000000000E+00 0.639999986E+00 0.999999978E-02 0.000000000E+00 0.660000026E+00 0.999999978E-02 0.000000000E+00 0.680000007E+00 0.999999978E-02 0.000000000E+00 0.699999988E+00 0.999999978E-02 0.000000000E+00 0.720000029E+00 0.999999978E-02 0.000000000E+00 0.740000010E+00 0.999999978E-02 0.000000000E+00 0.759999990E+00 0.999999978E-02 0.000000000E+00 0.779999971E+00 0.999999978E-02 0.000000000E+00 0.800000012E+00 0.999999978E-02 0.000000000E+00 0.819999993E+00 0.999999978E-02 0.000000000E+00 0.839999974E+00 0.999999978E-02 0.000000000E+00 0.860000014E+00 0.999999978E-02 0.000000000E+00 0.879999995E+00 0.999999978E-02 0.000000000E+00 0.899999976E+00 0.999999978E-02 0.000000000E+00 0.920000017E+00 0.999999978E-02 0.000000000E+00 0.939999998E+00 0.999999978E-02 0.000000000E+00 0.959999979E+00 0.999999978E-02 0.000000000E+00 0.980000019E+00 0.999999978E-02 0.000000000E+00 0.100000000E+01 0.999999978E-02 0.000000000E+00 0.101999998E+01 0.999999978E-02 0.000000000E+00 0.103999996E+01 0.999999978E-02 0.000000000E+00 0.105999994E+01 0.999999978E-02 0.000000000E+00 0.108000004E+01 0.999999978E-02 0.000000000E+00 0.110000002E+01 0.999999978E-02 0.000000000E+00 0.112000000E+01 0.999999978E-02 0.000000000E+00 0.113999999E+01 0.999999978E-02 0.000000000E+00 0.115999997E+01 0.999999978E-02 0.000000000E+00 0.117999995E+01 0.999999978E-02 0.000000000E+00 0.120000005E+01 0.999999978E-02 0.000000000E+00 0.122000003E+01 0.999999978E-02 0.000000000E+00 0.124000001E+01 0.999999978E-02 0.000000000E+00 0.125999999E+01 0.999999978E-02 0.000000000E+00 0.127999997E+01 0.999999978E-02 0.000000000E+00 0.129999995E+01 0.999999978E-02 0.000000000E+00 0.132000005E+01 0.999999978E-02 0.000000000E+00 0.134000003E+01 0.999999978E-02 0.000000000E+00 0.136000001E+01 0.999999978E-02 0.000000000E+00 0.138000000E+01 0.999999978E-02 0.000000000E+00 0.139999998E+01 0.999999978E-02 0.000000000E+00 0.141999996E+01 0.999999978E-02 0.000000000E+00 0.144000006E+01 0.999999978E-02 0.000000000E+00 0.146000004E+01 0.999999978E-02 0.000000000E+00 0.148000002E+01 0.999999978E-02 0.000000000E+00 0.150000000E+01 0.999999978E-02 0.000000000E+00 0.151999998E+01 0.999999978E-02 0.000000000E+00 0.153999996E+01 0.999999978E-02 0.000000000E+00 0.155999994E+01 0.999999978E-02 0.000000000E+00 0.158000004E+01 0.999999978E-02 0.000000000E+00 0.160000002E+01 0.999999978E-02 0.000000000E+00 0.162000000E+01 0.999999978E-02 0.000000000E+00 0.163999999E+01 0.999999978E-02 0.000000000E+00 0.165999997E+01 0.999999978E-02 0.000000000E+00 0.167999995E+01 0.999999978E-02 0.000000000E+00 0.170000005E+01 0.999999978E-02 0.000000000E+00 0.172000003E+01 0.999999978E-02 0.000000000E+00 0.174000001E+01 0.999999978E-02 0.000000000E+00 0.175999999E+01 0.999999978E-02 0.000000000E+00 0.177999997E+01 0.999999978E-02 0.000000000E+00 0.179999995E+01 0.999999978E-02 0.000000000E+00 0.182000005E+01 0.999999978E-02 0.000000000E+00 0.184000003E+01 0.999999978E-02 0.000000000E+00 0.186000001E+01 0.999999978E-02 0.000000000E+00 0.188000000E+01 0.999999978E-02 0.000000000E+00 0.189999998E+01 0.999999978E-02 0.000000000E+00 0.191999996E+01 0.999999978E-02 0.000000000E+00 0.194000006E+01 0.999999978E-02 0.000000000E+00 0.196000004E+01 0.999999978E-02 0.000000000E+00 0.198000002E+01 0.999999978E-02 0.000000000E+00 0.200000000E+01 0.999999978E-02 0.000000000E+00
[...]
<CellData Scalars="Temperature, U, V">
<DataArray type="Float32" Name="Temp, K"/>
0.191417922E-07 0.738845927E-07 0.192220696E-06 0.399133597E-06 0.708225798E-06 0.111564862E-05 0.159802050E-05 0.211481506E-05 0.261456853E-05 0.304344007E-05 0.335424011E-05 0.351409403E-05 0.350929463E-05 0.334658057E-05 0.305082904E-05 0.265987046E-05 0.221765504E-05 0.176721608E-05 0.134477580E-05 0.975952730E-06 0.674446198E-06 0.443003614E-06 0.275995063E-06 0.162712837E-06 0.905456972E-07 0.493532930E-07 0.262959645E-07 0.136655585E-07 0.690998903E-08 0.339060691E-08 0.160968427E-08 0.736946337E-09 0.324162946E-09 0.136435266E-09 0.546885939E-10 0.207667755E-10 0.742517072E-11 0.248237151E-11 0.769674255E-12 0.219204890E-12 0.566892385E-13 0.131271726E-13 0.267465413E-14 0.468831148E-15 0.685972941E-16 0.972801954E-17 0.119024583E-14 0.440542459E-12 0.840110204E-10 0.118987473E-09 0.837483999E-12 0.297539148E-14 0.785198301E-17 0.170344314E-16 0.119516574E-15 0.700251720E-15 0.352984061E-14 0.156566942E-13 0.621841920E-13 0.224274253E-12 0.743006026E-12 0.228293968E-11 0.655886716E-11 0.177434595E-10 0.454738608E-10 0.110995844E-09 0.259242294E-09 0.581782067E-09 0.125914512E-08 0.263687761E-08 0.535917311E-08 0.105991163E-07 0.204488586E-07 0.385715140E-07 0.712774835E-07 0.129284430E-06 0.221693327E-06 0.360202023E-06 0.555665110E-06 0.815350404E-06 0.113979161E-05 0.151993663E-05 0.193544724E-05 0.235493621E-05 0.273860974E-05 0.304327114E-05 0.322900746E-05 0.326642862E-05 0.314290924E-05 0.286639693E-05 0.246560785E-05 0.198623525E-05 0.148350068E-05 0.101236196E-05 0.617424348E-06 0.324899275E-06 0.138778631E-06 0.426162714E-07 0.688007162E-08 0.424639436E-13
0.143149748E-06 0.536019002E-06 0.136493099E-05 0.279272535E-05 0.490768798E-05 0.768750579E-05 0.109871098E-04 0.145525028E-04 0.180567313E-04 0.211500028E-04 0.235138632E-04 0.249093755E-04 0.252110221E-04 0.244210805E-04 0.226630618E-04 0.201564962E-04 0.171787178E-04 0.140212551E-04 0.109489911E-04 0.816906049E-05 0.581387803E-05 0.393930532E-05 0.253563940E-05 0.154675922E-05 0.891837203E-06 0.502674595E-06 0.276445832E-06 0.148031802E-06 0.770064119E-07 0.388169603E-07 0.189064391E-07 0.886988794E-08 0.399397182E-08 0.171922543E-08 0.704259429E-09 0.273124551E-09 0.996878205E-10 0.340093440E-10 0.107584740E-10 0.312599642E-11 0.824863886E-12 0.194944972E-12 0.405555580E-13 0.726256552E-14 0.108637439E-14 0.133626621E-15 0.248081466E-14 0.909617976E-12 0.173118880E-09 0.245021531E-09 0.172416356E-11 0.614156146E-14 0.444242146E-16 0.275875428E-15 0.189398621E-14 0.108639616E-13 0.536507315E-13 0.233261408E-12 0.908478262E-12 0.321372139E-11 0.104436347E-10 0.314741809E-10 0.886736934E-10 0.235153563E-09 0.590474170E-09 0.141119971E-08 0.322467764E-08 0.707351866E-08 0.149479806E-07 0.305285539E-07 0.604285546E-07 0.116225557E-06 0.217714614E-06 0.398023786E-06 0.711528571E-06 0.124592498E-05 0.206520735E-05 0.324801431E-05 0.485710507E-05 0.691942569E-05 0.940628979E-05 0.122187712E-04 0.151834265E-04 0.180619736E-04 0.205758552E-04 0.224432733E-04 0.234228755E-04 0.233566534E-04 0.222030030E-04 0.200528448E-04 0.171234569E-04 0.137297038E-04 0.102355316E-04 0.699388784E-05 0.428658905E-05 0.227701207E-05 0.987650424E-06 0.310658947E-06 0.520748245E-07 0.318247897E-12
0.760622413E-06 0.277309391E-05 0.692928097E-05 0.139918002E-04 0.243693703E-04 0.379635567E-04 0.541200061E-04 0.716890863E-04 0.891785967E-04 0.104965999E-03 0.117530937E-03 0.125668768E-03 0.128651940E-03 0.126316227E-03 0.119061326E-03 0.107769600E-03 0.936596116E-04 0.781011622E-04 0.624247623E-04 0.477575304E-04 0.349113143E-04 0.243366230E-04 0.161414609E-04 0.101608603E-04 0.605405876E-05 0.351920812E-05 0.199236615E-05 0.109642224E-05 0.585239206E-06 0.302265420E-06 0.150650351E-06 0.722371780E-07 0.332104975E-07 0.145825423E-07 0.608868378E-08 0.240525377E-08 0.893780272E-09 0.310324294E-09 0.998849475E-10 0.295281473E-10 0.792792394E-11 0.190684382E-11 0.403870053E-12 0.736710633E-13 0.112329410E-13 0.137742137E-14 0.397533992E-14 0.141020702E-11 0.267729949E-09 0.378659354E-09 0.266529442E-11 0.954588937E-14 0.365356730E-15 0.291107500E-14 0.196086247E-13 0.110436467E-12 0.535836349E-12 0.229005140E-11 0.877022760E-11 0.305127763E-10 0.975260914E-10 0.289050811E-09 0.800676803E-09 0.208683071E-08 0.514730436E-08 0.120759482E-07 0.270660543E-07 0.581800954E-07 0.120353420E-06 0.240324937E-06 0.464486988E-06 0.871035297E-06 0.158828891E-05 0.282164842E-05 0.489237618E-05 0.829219152E-05 0.133213953E-04 0.203331856E-04 0.295524897E-04 0.409805580E-04 0.543141468E-04 0.689027656E-04 0.837628031E-04 0.976573210E-04 0.109236404E-03 0.117219839E-03 0.120592093E-03 0.118777272E-03 0.111759000E-03 0.100121113E-03 0.849933567E-04 0.679062359E-04 0.505699281E-04 0.346111192E-04 0.213143157E-04 0.114186996E-04 0.501979093E-05 0.161186529E-05 0.279046134E-06 0.168207418E-11
0.305313188E-05 0.108562881E-04 0.266494535E-04 0.531349397E-04 0.917306897E-04 0.142083794E-03 0.201933566E-03 0.267324125E-03 0.333102711E-03 0.393602124E-03 0.443390134E-03 0.477972790E-03 0.494354870E-03 0.491384999E-03 0.469846505E-03 0.432288391E-03 0.382626662E-03 0.325581990E-03 0.266042480E-03 0.208454629E-03 0.156338239E-03 0.111997550E-03 0.764581127E-04 0.496122921E-04 0.305133526E-04 0.182756594E-04 0.106421749E-04 0.601407964E-05 0.329154682E-05 0.174070078E-05 0.887192186E-06 0.434523031E-06 0.203833025E-06 0.912375384E-07 0.388017192E-07 0.156018221E-07 0.589775295E-08 0.208220685E-08 0.681284806E-09 0.204697717E-09 0.558563334E-10 0.136556851E-10 0.294060522E-11 0.545585116E-12 0.846575278E-13 0.105362547E-13 0.632570261E-14 0.194562530E-11 0.368285236E-09 0.520505417E-09 0.366664728E-11 0.133772862E-13 0.273522397E-14 0.223629929E-13 0.148036992E-12 0.819907889E-12 0.391414982E-11 0.164651036E-10 0.620787935E-10 0.212649925E-09 0.669164391E-09 0.195223748E-08 0.532135358E-08 0.136414826E-07 0.330758567E-07 0.762259091E-07 0.167685712E-06 0.353445529E-06 0.716174327E-06 0.139912083E-05 0.264215737E-05 0.483427175E-05 0.858745898E-05 0.148373219E-04 0.249755249E-04 0.410182256E-04 0.639342106E-04 0.948122761E-04 0.134080226E-03 0.181188894E-03 0.234398787E-03 0.290740427E-03 0.346188812E-03 0.396052317E-03 0.435528811E-03 0.460350013E-03 0.467408623E-03 0.455272500E-03 0.424488477E-03 0.377621909E-03 0.318999490E-03 0.254182552E-03 0.189219470E-03 0.129781067E-03 0.803165458E-04 0.433844434E-04 0.193134892E-04 0.631970033E-05 0.112649991E-05 0.667040208E-11
0.991698926E-05 0.344448636E-04 0.831489815E-04 0.163778852E-03 0.280265289E-03 0.431495573E-03 0.611045747E-03 0.807817851E-03 0.100738602E-02 0.119378278E-02 0.135144580E-02 0.146706065E-02 0.153108570E-02 0.153878646E-02 0.149067596E-02 0.139231980E-02 0.125353085E-02 0.108706369E-02 0.906985893E-03 0.726960599E-03 0.558700704E-03 0.410835783E-03 0.288352021E-03 0.192656051E-03 0.122177313E-03 0.753250133E-04 0.450772714E-04 0.261391560E-04 0.146585744E-04 0.793232448E-05 0.413176940E-05 0.206573191E-05 0.988152351E-06 0.450611367E-06 0.195072801E-06 0.797856003E-07 0.306602246E-07 0.109986535E-07 0.365520281E-08 0.111521192E-08 0.308978676E-09 0.766987515E-10 0.167724029E-10 0.316103155E-11 0.498451161E-12 0.630406643E-13 0.129462591E-13 0.251970753E-11 0.475265050E-09 0.671217415E-09 0.473461634E-11 0.185439127E-13 0.165445863E-13 0.134065800E-12 0.873469916E-12 0.476389891E-11 0.224040508E-10 0.928663119E-10 0.345061674E-09 0.116486665E-08 0.361196228E-08 0.103807718E-07 0.278637486E-07 0.703041678E-07 0.167673150E-06 0.379812491E-06 0.820559251E-06 0.169694943E-05 0.337005235E-05 0.644521742E-05 0.119001688E-04 0.212588711E-04 0.368168585E-04 0.619190978E-04 0.101284022E-03 0.161356875E-03 0.244285213E-03 0.352362287E-03 0.485395954E-03 0.639958598E-03 0.809062098E-03 0.982396305E-03 0.114716520E-02 0.128943031E-02 0.139577396E-02 0.145504216E-02 0.145989587E-02 0.140796730E-02 0.130241481E-02 0.115180179E-02 0.969246088E-03 0.770935090E-03 0.574118923E-03 0.394822389E-03 0.245605537E-03 0.133745212E-03 0.602467298E-04 0.200560244E-04 0.367018515E-05 0.212641918E-10
0.272586312E-04 0.926096545E-04 0.220042770E-03 0.428334868E-03 0.726537837E-03 0.111145410E-02 0.156735140E-02 0.206765789E-02 0.257811416E-02 0.306076510E-02 0.347822392E-02 0.379768806E-02 0.399434194E-02 0.405381806E-02 0.397353014E-02 0.376274320E-02 0.344137009E-02 0.303758821E-02 0.258452771E-02 0.211643102E-02 0.166480022E-02 0.125511666E-02 0.904642569E-03 0.621640065E-03 0.406041712E-03 0.257434876E-03 0.158191528E-03 0.940571845E-04 0.540101173E-04 0.298887699E-04 0.159017145E-04 0.811138761E-05 0.395466532E-05 0.183630141E-05 0.808774814E-06 0.336295187E-06 0.131297924E-06 0.478272888E-07 0.161330647E-07 0.499455410E-08 0.140384060E-08 0.353505558E-09 0.784231291E-10 0.149966897E-10 0.240015429E-11 0.308192355E-12 0.384412351E-13 0.313740483E-11 0.589192528E-09 0.831511526E-09 0.587643172E-11 0.289196869E-13 0.821436493E-13 0.656658864E-12 0.421626015E-11 0.226713631E-10 0.105147828E-09 0.429891317E-09 0.157557178E-08 0.524590282E-08 0.160398290E-07 0.454421070E-07 0.120185391E-06 0.298634603E-06 0.700950352E-06 0.156145859E-05 0.331465253E-05 0.672900660E-05 0.131044399E-04 0.245484807E-04 0.443416684E-04 0.773926004E-04 0.130766915E-03 0.214251602E-03 0.340887695E-03 0.527375552E-03 0.776368426E-03 0.109047326E-02 0.146498519E-02 0.188666675E-02 0.233378587E-02 0.277755503E-02 0.318483030E-02 0.352169480E-02 0.375740393E-02 0.386815751E-02 0.384016545E-02 0.367169688E-02 0.337378308E-02 0.296951854E-02 0.249190000E-02 0.198041182E-02 0.147654943E-02 0.101872301E-02 0.637186633E-03 0.349767623E-03 0.159323565E-03 0.538777240E-04 0.100934012E-04 0.570067257E-10
0.654487958E-04 0.217765119E-03 0.509683916E-03 0.980808982E-03 0.164886203E-02 0.250539160E-02 0.351608847E-02 0.462486129E-02 0.576043827E-02 0.684424723E-02 0.779853156E-02 0.855387468E-02 0.905560423E-02 0.926863495E-02 0.918048993E-02 0.880224723E-02 0.816733111E-02 0.732807815E-02 0.635028258E-02 0.530620385E-02 0.426677288E-02 0.329408795E-02 0.243533752E-02 0.171920320E-02 0.115530042E-02 0.752531982E-03 0.474441797E-03 0.289040909E-03 0.169846404E-03 0.960669495E-04 0.521786314E-04 0.271427962E-04 0.134815573E-04 0.637147195E-05 0.285377450E-05 0.120580751E-05 0.478067477E-06 0.176738709E-06 0.604771202E-07 0.189857658E-07 0.540993161E-08 0.138084899E-08 0.310493714E-09 0.601861269E-10 0.976601265E-11 0.127174844E-11 0.135057818E-12 0.380661041E-11 0.710639048E-09 0.100216846E-08 0.710071498E-11 0.585466801E-13 0.344300489E-12 0.271544462E-11 0.172022136E-10 0.912892192E-10 0.417930857E-09 0.168675451E-08 0.610235595E-08 0.200527648E-07 0.604964470E-07 0.169044327E-06 0.440754889E-06 0.107903998E-05 0.249369737E-05 0.546529054E-05 0.114044833E-04 0.227370765E-04 0.434413778E-04 0.797503380E-04 0.141003926E-03 0.240595546E-03 0.396902877E-03 0.634033175E-03 0.982157770E-03 0.147718133E-02 0.211694487E-02 0.289875595E-02 0.380236190E-02 0.478902087E-02 0.580346119E-02 0.677855266E-02 0.764201116E-02 0.832410809E-02 0.876533985E-02 0.892312173E-02 0.877672806E-02 0.833017938E-02 0.761267915E-02 0.667664688E-02 0.559325656E-02 0.444584247E-02 0.332133356E-02 0.230037980E-02 0.144723465E-02 0.800790847E-03 0.368660752E-03 0.126467916E-03 0.241903872E-04 0.132731395E-09
0.140573233E-03 0.458542170E-03 0.105791085E-02 0.201297738E-02 0.335354288E-02 0.505907694E-02 0.706137111E-02 0.925348233E-02 0.115023786E-01 0.136629809E-01 0.155919380E-01 0.171599798E-01 0.182623211E-01 0.188266914E-01 0.188188106E-01 0.182450730E-01 0.171521641E-01 0.156233078E-01 0.137710487E-01 0.117267426E-01 0.962753035E-02 0.760224322E-02 0.575820683E-02 0.417122059E-02 0.288056768E-02 0.192588405E-02 0.124475162E-02 0.776481465E-03 0.466646277E-03 0.269629847E-03 0.149441621E-03 0.792434876E-04 0.400820791E-04 0.192730622E-04 0.877530420E-05 0.376630737E-05 0.151572806E-05 0.568452606E-06 0.197223756E-06 0.627505514E-07 0.181159265E-07 0.468377603E-08 0.106667253E-08 0.209409601E-09 0.344176215E-10 0.454060921E-11 0.462896973E-12 0.454301440E-11 0.840228276E-09 0.118404120E-08 0.841886717E-11 0.151152487E-12 0.124788114E-11 0.971812041E-11 0.608020995E-10 0.318735205E-09 0.144154122E-08 0.574745584E-08 0.205383639E-07 0.666478712E-07 0.198491463E-06 0.547301966E-06 0.140738427E-05 0.339608368E-05 0.773052307E-05 0.166750142E-04 0.342173153E-04 0.670223671E-04 0.125681327E-03 0.226214514E-03 0.391699257E-03 0.653781346E-03 0.105371291E-02 0.164246815E-02 0.247945357E-02 0.362940598E-02 0.506910402E-02 0.677471608E-02 0.868704915E-02 0.107133845E-01 0.127346003E-01 0.146163991E-01 0.162228066E-01 0.174299721E-01 0.181385558E-01 0.182836074E-01 0.178410616E-01 0.168309100E-01 0.153166661E-01 0.134013919E-01 0.112200212E-01 0.892842468E-02 0.668904092E-02 0.465385430E-02 0.294615049E-02 0.164333533E-02 0.764272816E-03 0.265643263E-03 0.517523695E-04 0.275021284E-09
0.275128783E-03 0.880621548E-03 0.200385577E-02 0.377078610E-02 0.622420153E-02 0.931828190E-02 0.129273226E-01 0.168637726E-01 0.209006835E-01 0.247947071E-01 0.283072591E-01 0.312225726E-01 0.333623961E-01 0.345973372E-01 0.348550379E-01 0.341252163E-01 0.324612483E-01 0.299776196E-01 0.268425290E-01 0.232651047E-01 0.194773022E-01 0.157117490E-01 0.121781724E-01 0.904207956E-02 0.640977500E-02 0.439450657E-02 0.290949387E-02 0.185717223E-02 0.114084466E-02 0.673071423E-03 0.380511075E-03 0.205601144E-03 0.105867279E-03 0.517747540E-04 0.239561632E-04 0.104404462E-04 0.426347742E-05 0.162143738E-05 0.570147563E-06 0.183765096E-06 0.537226050E-07 0.140610323E-07 0.324109517E-08 0.643953724E-09 0.107111896E-09 0.143025956E-10 0.145051050E-11 0.538133904E-11 0.978642722E-09 0.137806067E-08 0.984825763E-11 0.425720304E-12 0.398738464E-11 0.306903947E-10 0.189808974E-09 0.983666926E-09 0.439807657E-08 0.173334129E-07 0.612153244E-07 0.196263386E-06 0.577281014E-06 0.157130728E-05 0.398653583E-05 0.948496381E-05 0.212732193E-04 0.451771775E-04 0.911926181E-04 0.175549416E-03 0.323218439E-03 0.570623321E-03 0.968108769E-03 0.158150145E-02 0.249194051E-02 0.379312714E-02 0.558533473E-02 0.796595309E-02 0.108553693E-01 0.141763799E-01 0.177910831E-01 0.215104055E-01 0.251113717E-01 0.283588376E-01 0.310282558E-01 0.329263955E-01 0.339081138E-01 0.338883474E-01 0.328489058E-01 0.308409762E-01 0.279829260E-01 0.244540498E-01 0.204834603E-01 0.163343325E-01 0.122825122E-01 0.858989172E-02 0.547420839E-02 0.307845999E-02 0.144583837E-02 0.508635479E-03 0.100701705E-03 0.516898024E-09
0.497964618E-03 0.156512775E-02 0.351433153E-02 0.654074084E-02 0.106947897E-01 0.158822611E-01 0.218858384E-01 0.283987541E-01 0.350620411E-01 0.414995253E-01 0.473476090E-01 0.522788800E-01 0.560201332E-01 0.583658554E-01 0.591882206E-01 0.584443621E-01 0.561807081E-01 0.525335819E-01 0.477245376E-01 0.420484766E-01 0.358531773E-01 0.295102466E-01 0.233795494E-01 0.177720804E-01 0.129177803E-01 0.907338038E-02 0.614891294E-02 0.401367806E-02 0.251884828E-02 0.151667965E-02 0.874242105E-03 0.481176889E-03 0.252145954E-03 0.125381339E-03 0.589374067E-04 0.260741399E-04 0.108008189E-04 0.416397688E-05 0.148338961E-05 0.484136933E-06 0.143255591E-06 0.379375713E-07 0.884561313E-08 0.177745973E-08 0.298990471E-09 0.403752691E-10 0.411603997E-11 0.639811294E-11 0.112663090E-08 0.158524616E-08 0.114187418E-10 0.116950601E-11 0.114104195E-10 0.868752154E-10 0.531533317E-09 0.272512390E-08 0.120528325E-07 0.469810502E-07 0.164058022E-06 0.519905768E-06 0.151089660E-05 0.406116533E-05 0.101689220E-04 0.238627981E-04 0.527488555E-04 0.110319852E-03 0.219121372E-03 0.414694368E-03 0.749933010E-03 0.129912456E-02 0.216055731E-02 0.345628499E-02 0.532760657E-02 0.792515650E-02 0.113933161E-01 0.158498883E-01 0.210975725E-01 0.269534625E-01 0.331452638E-01 0.393358022E-01 0.451559983E-01 0.502401628E-01 0.542584397E-01 0.569429472E-01 0.581063554E-01 0.576534085E-01 0.555859655E-01 0.520038791E-01 0.471011177E-01 0.411581546E-01 0.345284827E-01 0.276190862E-01 0.208618976E-01 0.146756610E-01 0.941936299E-02 0.534129702E-02 0.253271149E-02 0.900977815E-03 0.180914547E-03 0.894891716E-09
0.843475456E-03 0.260485359E-02 0.577382045E-02 0.106288502E-01 0.172115956E-01 0.253425576E-01 0.346663706E-01 0.447101593E-01 0.549416058E-01 0.648187771E-01 0.738286749E-01 0.815146267E-01 0.874951482E-01 0.914765671E-01 0.932625085E-01 0.927617624E-01 0.899953693E-01 0.851018950E-01 0.783389285E-01 0.700770766E-01 0.607827865E-01 0.509871580E-01 0.412409082E-01 0.320595019E-01 0.238672458E-01 0.171593856E-01 0.118939662E-01 0.793433283E-02 0.508429110E-02 0.312312716E-02 0.183483271E-02 0.102835009E-02 0.548237877E-03 0.277109881E-03 0.132296846E-03 0.593970180E-04 0.249509430E-04 0.974807244E-05 0.351704352E-05 0.116188858E-05 0.347835993E-06 0.931590023E-07 0.219601866E-07 0.446022552E-08 0.758222318E-09 0.103468428E-09 0.106342877E-10 0.775247921E-11 0.128501554E-08 0.180671456E-08 0.131844848E-10 0.300576100E-11 0.296225336E-10 0.223274343E-09 0.135238976E-08 0.686366386E-08 0.300462446E-07 0.115891673E-06 0.400329384E-06 0.125448025E-05 0.360320973E-05 0.956724489E-05 0.236498890E-04 0.547523669E-04 0.119317920E-03 0.245820411E-03 0.480574236E-03 0.894411118E-03 0.158917741E-02 0.270233420E-02 0.440741889E-02 0.690798135E-02 0.104231108E-01 0.151639776E-01 0.213028435E-01 0.289383885E-01 0.376671962E-01 0.471305326E-01 0.568576194E-01 0.663130358E-01 0.749494061E-01 0.822561607E-01 0.877984762E-01 0.912439376E-01 0.923782215E-01 0.911123231E-01 0.874837786E-01 0.816555545E-01 0.739119798E-01 0.646521077E-01 0.543771870E-01 0.436701998E-01 0.331620276E-01 0.234810133E-01 0.151857371E-01 0.868488289E-02 0.415700069E-02 0.149422942E-02 0.303765410E-03 0.144521273E-08
0.135022576E-02 0.409906078E-02 0.897200312E-02 0.163362492E-01 0.261917710E-01 0.382196568E-01 0.518669412E-01 0.664412677E-01 0.811963007E-01 0.953981057E-01 0.108370923E+00 0.119524777E+00 0.128370538E+00 0.134527311E+00 0.137727141E+00 0.137820676E+00 0.134785160E+00 0.128735095E+00 0.119932465E+00 0.108792305E+00 0.958764479E-01 0.818691552E-01 0.675300509E-01 0.536251515E-01 0.408447869E-01 0.300306343E-01 0.212747492E-01 0.144951688E-01 0.947947241E-02 0.593781145E-02 0.355421775E-02 0.202778052E-02 0.109952188E-02 0.564768852E-03 0.273774262E-03 0.124706232E-03 0.531087026E-04 0.210208091E-04 0.767859001E-05 0.256678072E-05 0.777132698E-06 0.210401055E-06 0.501185937E-07 0.102832356E-07 0.176556558E-08 0.243303599E-09 0.252260001E-10 0.975113826E-11 0.145470402E-08 0.204369055E-08 0.152431574E-10 0.716254877E-11 0.705216024E-10 0.526592825E-09 0.315971183E-08 0.158836606E-07 0.688556057E-07 0.262922896E-06 0.898796884E-06 0.278603125E-05 0.791171715E-05 0.207577577E-04 0.506712931E-04 0.115765179E-03 0.248773227E-03 0.505009608E-03 0.972008042E-03 0.177952845E-02 0.310756126E-02 0.518898992E-02 0.830315519E-02 0.127571095E-01 0.188532025E-01 0.268447232E-01 0.368850902E-01 0.489795655E-01 0.624113455E-01 0.765682310E-01 0.907228366E-01 0.104108475E+00 0.115991056E+00 0.125726223E+00 0.132796988E+00 0.136833459E+00 0.137619048E+00 0.135089770E+00 0.129330248E+00 0.120571762E+00 0.109190829E+00 0.957082063E-01 0.807823688E-01 0.651937053E-01 0.498094372E-01 0.355222896E-01 0.231590979E-01 0.133615434E-01 0.645513833E-02 0.234302436E-02 0.481495692E-03 0.219995577E-08