<?xml version="1.0"?>
<VTKFile type="StructuredGrid">
<StructuredGrid WholeExtent="     0   100     0   100     0     0">
<Piece Extent="     0   100     0   100     0     0">
<Points>
<DataArray type="Float32" NumberOfComponents="3"/>
0.000000000E+00 0.000000000E+00 0.000000000E+00 0.199999996E-01 0.000000000E+00 0.000000000E+00 0.399999991E-01 0.000000000E+00 0.000000000E+00 0.599999987E-01 0.000000000E+00 0.000000000E+00 0.799999982E-01 0.000000000E+00 0.000000000E+00 0.100000001E+00 0.000000000E+00 0.000000000E+00 0.119999997E+00 0.000000000E+00 0.000000000E+00 0.140000001E+00 0.000000000E+00 0.000000000E+00 0.159999996E+00 0.000000000E+00 0.000000000E+00 0.180000007E+00 0.000000000E+00 0.000000000E+00 0.200000003E+00 0.000000000E+00 0.000000000E+00 0.219999999E+00 0.000000000E+00 0.000000000E+00 0.239999995E+00 0.000000000E+00 0.000000000E+00 0.259999990E+00 0.000000000E+00 0.000000000E+00 0.280000001E+00 0.000000000E+00 0.000000000E+00 0.300000012E+00 0.000000000E+00 0.000000000E+00 0.319999993E+00 0.000000000E+00 0.000000000E+00 0.340000004E+00 0.000000000E+00 0.000000000E+00 0.360000014E+00 0.000000000E+00 0.000000000E+00 0.379999995E+00 0.000000000E+00 0.000000000E+00 0.400000006E+00 0.000000000E+00 0.000000000E+00 0.419999987E+00 0.000000000E+00 0.000000000E+00 0.439999998E+00 0.000000000E+00 0.000000000E+00 0.460000008E+00 0.000000000E+00 0.000000000E+00 0.479999989E+00 0.000000000E+00 0.000000000E+00 0.500000000E+00 0.000000000E+00 0.000000000E+00 0.519999981E+00 0.000000000E+00 0.000000000E+00 0.540000021E+00 0.000000000E+00 0.000000000E+00 0.560000002E+00 0.000000000E+00 0.000000000E+00 0.579999983E+00 0.000000000E+00 0.000000000E+00 0.600000024E+00 0.000000000E+00 0.000000000E+00 0.620000005E+00 0.000000000E+00 0.000000000E+00 0.639999986E+00 0.000000000E+00 0.000000000E+00 0.660000026E+00 0.000000000E+00 0.000000000E+00 0.680000007E+00 0.000000000E+00 0.000000000E+00 0.699999988E+00 0.000000000E+00 0.000000000E+00 0.720000029E+00 0.000000000E+00 0.000000000E+00 0.740000010E+00 0.000000000E+00 0.000000000E+00 0.759999990E+00 0.000000000E+00 0.000000000E+00 0.779999971E+00 0.000000000E+00 0.000000000E+00 0.800000012E+00 0.000000000E+00 0.000000000E+00 0.819999993E+00 0.000000000E+00 0.000000000E+00 0.839999974E+00 0.000000000E+00 0.000000000E+00 0.860000014E+00 0.000000000E+00 0.000000000E+00 0.879999995E+00 0.000000000E+00 0.000000000E+00 0.899999976E+00 0.000000000E+00 0.000000000E+00 0.920000017E+00 0.000000000E+00 0.000000000E+00 0.939999998E+00 0.000000000E+00 0.000000000E+00 0.959999979E+00 0.000000000E+00 0.000000000E+00 0.980000019E+00 0.000000000E+00 0.000000000E+00 0.100000000E+01 0.000000000E+00 0.000000000E+00 0.101999998E+01 0.000000000E+00 0.000000000E+00 0.103999996E+01 0.000000000E+00 0.000000000E+00 0.105999994E+01 0.000000000E+00 0.000000000E+00 0.108000004E+01 0.000000000E+00 0.000000000E+00 0.110000002E+01 0.000000000E+00 0.000000000E+00 0.112000000E+01 0.000000000E+00 0.000000000E+00 0.113999999E+01 0.000000000E+00 0.000000000E+00 0.115999997E+01 0.000000000E+00 0.000000000E+00 0.117999995E+01 0.000000000E+00 0.000000000E+00 0.120000005E+01 0.000000000E+00 0.000000000E+00 0.122000003E+01 0.000000000E+00 0.000000000E+00 0.124000001E+01 0.000000000E+00 0.000000000E+00 0.125999999E+01 0.000000000E+00 0.000000000E+00 0.127999997E+01 0.000000000E+00 0.000000000E+00 0.129999995E+01 0.000000000E+00 0.000000000E+00 0.132000005E+01 0.000000000E+00 0.000000000E+00 0.134000003E+01 0.000000000E+00 0.000000000E+00 0.136000001E+01 0.000000000E+00 0.000000000E+00 0.138000000E+01 0.000000000E+00 0.000000000E+00 0.139999998E+01 0.000000000E+00 0.000000000E+00 0.141999996E+01 0.000000000E+00 0.000000000E+00 0.144000006E+01 0.000000000E+00 0.000000000E+00 0.146000004E+01 0.000000000E+00 0.000000000E+00 0.148000002E+01 0.000000000E+00 0.000000000E+00 0.150000000E+01 0.000000000E+00 0.000000000E+00 0.151999998E+01 0.000000000E+00 0.000000000E+00 0.153999996E+01 0.000000000E+00 0.000000000E+00 0.155999994E+01 0.000000000E+00 0.000000000E+00 0.158000004E+01 0.000000000E+00 0.000000000E+00 0.160000002E+01 0.000000000E+00 0.000000000E+00 0.162000000E+01 0.000000000E+00 0.000000000E+00 0.163999999E+01 0.000000000E+00 0.000000000E+00 0.165999997E+01 0.000000000E+00 0.000000000E+00 0.167999995E+01 0.000000000E+00 0.000000000E+00 0.170000005E+01 0.000000000E+00 0.000000000E+00 0.172000003E+01 0.000000000E+00 0.000000000E+00 0.174000001E+01 0.000000000E+00 0.000000000E+00 0.175999999E+01 0.000000000E+00 0.000000000E+00 0.177999997E+01 0.000000000E+00 0.000000000E+00 0.179999995E+01 0.000000000E+00 0.000000000E+00 0.182000005E+01 0.000000000E+00 0.000000000E+00 0.184000003E+01 0.000000000E+00 0.000000000E+00 0.186000001E+01 0.000000000E+00 0.000000000E+00 0.188000000E+01 0.000000000E+00 0.000000000E+00 0.189999998E+01 0.000000000E+00 0.000000000E+00 0.191999996E+01 0.000000000E+00 0.000000000E+00 0.194000006E+01 0.000000000E+00 0.000000000E+00 0.196000004E+01 0.000000000E+00 0.000000000E+00 0.198000002E+01 0.000000000E+00 0.000000000E+00 0.200000000E+01 0.000000000E+00 0.000000000E+00
0.000000000E+00 0.999999978E-02 0.000000000E+00 0.199999996E-01 0.999999978E-02 0.000000000E+00 0.399999991E-01 0.999999978E-02 0.000000000E+00 0.599999987E-01 0.999999978E-02 0.000000000E+00 0.799999982E-01 0.999999978E-02 0.000000000E+00 0.100000001E+00 0.999999978E-02 0.000000000E+00 0.119999997E+00 0.999999978E-02 0.000000000E+00 0.140000001E+00 0.999999978E-02 0.000000000E+00 0.159999996E+00 0.999999978E-02 0.000000000E+00 0.180000007E+00 0.999999978E-02 0.000000000E+00 0.200000003E+00 0.999999978E-02 0.000000000E+00 0.219999999E+00 0.999999978E-02 0.000000000E+00 0.239999995E+00 0.999999978E-02 0.000000000E+00 0.259999990E+00 0.999999978E-02 0.000000000E+00 0.280000001E+00 0.999999978E-02 0.000000000E+00 0.300000012E+00 0.999999978E-02 0.000000000E+00 0.319999993E+00 0.999999978E-02 0.000000000E+00 0.340000004E+00 0.999999978E-02 0.000000000E+00 0.360000014E+00 0.999999978E-02 0.000000000E+00 0.379999995E+00 0.999999978E-02 0.000000000E+00 0.400000006E+00 0.999999978E-02 0.000000000E+00 0.419999987E+00 0.999999978E-02 0.000000000E+00 0.439999998E+00 0.999999978E-02 0.000000000E+00 0.460000008E+00 0.999999978E-02 0.000000000E+00 0.479999989E+00 0.999999978E-02 0.000000000E+00 0.500000000E+00 0.999999978E-02 0.000000000E+00 0.519999981E+00 0.999999978E-02 0.000000000E+00 0.540000021E+00 0.999999978E-02 0.000000000E+00 0.560000002E+00 0.999999978E-02 0.000000000E+00 0.579999983E+00 0.999999978E-02 0.000000000E+00 0.600000024E+00 0.999999978E-02 0.000000000E+00 0.620000005E+00 0.999999978E-02 0.000000000E+00 0.639999986E+00 0.999999978E-02 0.000000000E+00 0.660000026E+00 0.999999978E-02 0.000000000E+00 0.680000007E+00 0.999999978E-02 0.000000000E+00 0.699999988E+00 0.999999978E-02 0.000000000E+00 0.720000029E+00 0.999999978E-02 0.000000000E+00 0.740000010E+00 0.999999978E-02 0.000000000E+00 0.759999990E+00 0.999999978E-02 0.000000000E+00 0.779999971E+00 0.999999978E-02 0.000000000E+00 0.800000012E+00 0.999999978E-02 0.000000000E+00 0.819999993E+00 0.999999978E-02 0.000000000E+00 0.839999974E+00 0.999999978E-02 0.000000000E+00 0.860000014E+00 0.999999978E-02 0.000000000E+00 0.879999995E+00 0.999999978E-02 0.000000000E+00 0.899999976E+00 0.999999978E-02 0.000000000E+00 0.920000017E+00 0.999999978E-02 0.000000000E+00 0.939999998E+00 0.999999978E-02 0.000000000E+00 0.959999979E+00 0.999999978E-02 0.000000000E+00 0.980000019E+00 0.999999978E-02 0.000000000E+00 0.100000000E+01 0.999999978E-02 0.000000000E+00 0.101999998E+01 0.999999978E-02 0.000000000E+00 0.103999996E+01 0.999999978E-02 0.000000000E+00 0.105999994E+01 0.999999978E-02 0.000000000E+00 0.108000004E+01 0.999999978E-02 0.000000000E+00 0.110000002E+01 0.999999978E-02 0.000000000E+00 0.112000000E+01 0.999999978E-02 0.000000000E+00 0.113999999E+01 0.999999978E-02 0.000000000E+00 0.115999997E+01 0.999999978E-02 0.000000000E+00 0.117999995E+01 0.999999978E-02 0.000000000E+00 0.120000005E+01 0.999999978E-02 0.000000000E+00 0.122000003E+01 0.999999978E-02 0.000000000E+00 0.124000001E+01 0.999999978E-02 0.000000000E+00 0.125999999E+01 0.999999978E-02 0.000000000E+00 0.127999997E+01 0.999999978E-02 0.000000000E+00 0.129999995E+01 0.999999978E-02 0.000000000E+00 0.132000005E+01 0.999999978E-02 0.000000000E+00 0.134000003E+01 0.999999978E-02 0.000000000E+00 0.136000001E+01 0.999999978E-02 0.000000000E+00 0.138000000E+01 0.999999978E-02 0.000000000E+00 0.139999998E+01 0.999999978E-02 0.000000000E+00 0.141999996E+01 0.999999978E-02 0.000000000E+00 0.144000006E+01 0.999999978E-02 0.000000000E+00 0.146000004E+01 0.999999978E-02 0.000000000E+00 0.148000002E+01 0.999999978E-02 0.000000000E+00 0.150000000E+01 0.999999978E-02 0.000000000E+00 0.151999998E+01 0.999999978E-02 0.000000000E+00 0.153999996E+01 0.999999978E-02 0.000000000E+00 0.155999994E+01 0.999999978E-02 0.000000000E+00 0.158000004E+01 0.999999978E-02 0.000000000E+00 0.160000002E+01 0.999999978E-02 0.000000000E+00 0.162000000E+01 0.999999978E-02 0.000000000E+00 0.163999999E+01 0.999999978E-02 0.000000000E+00 0.165999997E+01 0.999999978E-02 0.000000000E+00 0.167999995E+01 0.999999978E-02 0.000000000E+00 0.170000005E+01 0.999999978E-02 0.000000000E+00 0.172000003E+01 0.999999978E-02 0.000000000E+00 0.174000001E+01 0.999999978E-02 0.000000000E+00 0.175999999E+01 0.999999978E-02 0.000000000E+00 0.177999997E+01 0.999999978E-02 0.000000000E+00 0.179999995E+01 0.999999978E-02 0.000000000E+00 0.182000005E+01 0.999999978E-02 0.000000000E+00 0.184000003E+01 0.999999978E-02 0.000000000E+00 0.186000001E+01 0.999999978E-02 0.000000000E+00 0.188000000E+01 0.999999978E-02 0.000000000E+00 0.189999998E+01 0.999999978E-02 0.000000000E+00 0.191999996E+01 0.999999978E-02 0.000000000E+00 0.194000006E+01 0.999999978E-02 0.000000000E+00 0.196000004E+01 0.999999978E-02 0.000000000E+00 0.198000002E+01 0.999999978E-02 0.000000000E+00 0.200000000E+01 0.999999978E-02 0.000000000E+00
[...]
<CellData Scalars="Temperature, U, V">
<DataArray type="Float32" Name="Temp, K"/>
0.947026102E-08 0.383125744E-07 0.103519334E-06 0.221261317E-06 0.401350007E-06 0.642880764E-06 0.932394755E-06 0.124506937E-05 0.154860686E-05 0.180885240E-05 0.199582723E-05 0.208886081E-05 0.207980133E-05 0.197375175E-05 0.178736991E-05 0.154526401E-05 0.127538146E-05 0.100441173E-05 0.754104349E-06 0.539092014E-06 0.366384256E-06 0.236300409E-06 0.144327572E-06 0.832905442E-07 0.453018245E-07 0.241254732E-07 0.125539401E-07 0.636869357E-08 0.314206150E-08 0.150346247E-08 0.695630276E-09 0.310186044E-09 0.132802325E-09 0.543642735E-10 0.211786838E-10 0.780978927E-11 0.270944552E-11 0.878140605E-12 0.263713151E-12 0.726763756E-13 0.181693988E-13 0.406327761E-14 0.798727770E-15 0.134936173E-15 0.190100134E-16 0.451808077E-17 0.154977722E-14 0.535817647E-12 0.955527393E-10 0.135353020E-09 0.101931701E-11 0.388081951E-14 0.877758819E-17 0.459244844E-17 0.334024961E-16 0.203023157E-15 0.106058022E-14 0.487022176E-14 0.200060237E-13 0.745547219E-13 0.254975511E-12 0.808017607E-12 0.239221880E-11 0.666343413E-11 0.175698848E-10 0.440898429E-10 0.105793367E-09 0.243752074E-09 0.541293343E-09 0.116243426E-08 0.242141374E-08 0.490596008E-08 0.969204894E-08 0.187125568E-07 0.353822358E-07 0.656463683E-07 0.114979947E-06 0.190537293E-06 0.299334801E-06 0.446613370E-06 0.633835896E-06 0.856738723E-06 0.110400094E-05 0.135709467E-05 0.159170440E-05 0.178077130E-05 0.189877676E-05 0.192652919E-05 0.185539102E-05 0.168992790E-05 0.144812554E-05 0.115888417E-05 0.857029420E-06 0.576789375E-06 0.345200959E-06 0.177090186E-06 0.730765919E-07 0.213944187E-07 0.323177374E-08 0.189840209E-13
0.742182422E-07 0.290898839E-06 0.768593111E-06 0.161774210E-05 0.290504158E-05 0.462610478E-05 0.669399742E-05 0.894627647E-05 0.111684876E-04 0.131285879E-04 0.146148986E-04 0.154699883E-04 0.156142614E-04 0.150553033E-04 0.138821379E-04 0.122463516E-04 0.103345747E-04 0.833809372E-05 0.642553277E-05 0.472332567E-05 0.330656076E-05 0.220023026E-05 0.138863254E-05 0.829276871E-06 0.467389299E-06 0.257421362E-06 0.138281209E-06 0.722964941E-07 0.367023567E-07 0.180456095E-07 0.856846150E-08 0.391648136E-08 0.171708381E-08 0.719172832E-09 0.286440566E-09 0.107927861E-09 0.382418021E-10 0.126547601E-10 0.387959196E-11 0.109146394E-11 0.278600358E-12 0.636313647E-13 0.127803177E-13 0.220738671E-14 0.318148143E-15 0.416726049E-16 0.322706763E-14 0.110852690E-11 0.197275127E-09 0.279237328E-09 0.210226042E-11 0.802303255E-14 0.260144316E-16 0.785194645E-16 0.559247045E-15 0.332528851E-14 0.170057907E-13 0.764923742E-13 0.307912983E-12 0.112475112E-11 0.377089766E-11 0.117143352E-10 0.339914520E-10 0.927676824E-10 0.239547909E-09 0.588329496E-09 0.138061274E-08 0.310817749E-08 0.673732092E-08 0.141063197E-07 0.286114066E-07 0.563628824E-07 0.108092820E-06 0.202244649E-06 0.369894622E-06 0.662478158E-06 0.112151076E-05 0.179874246E-05 0.273890760E-05 0.396682935E-05 0.547366244E-05 0.720565913E-05 0.905921115E-05 0.108851282E-04 0.125034576E-04 0.137276593E-04 0.143944071E-04 0.143937459E-04 0.136929875E-04 0.123488689E-04 0.105038716E-04 0.836621894E-05 0.617583328E-05 0.416239982E-05 0.250424046E-05 0.129751106E-05 0.544139937E-06 0.163368853E-06 0.256562238E-07 0.149514922E-12
0.411239313E-06 0.156745830E-05 0.406035178E-05 0.842942154E-05 0.149972839E-04 0.237470813E-04 0.342725871E-04 0.458099239E-04 0.573409634E-04 0.677451608E-04 0.759695176E-04 0.811855934E-04 0.829073251E-04 0.810511265E-04 0.759309187E-04 0.681923120E-04 0.587000650E-04 0.484011616E-04 0.381890968E-04 0.287930288E-04 0.207090579E-04 0.141806804E-04 0.922414347E-05 0.568559562E-05 0.331195406E-05 0.188161437E-05 0.104074127E-05 0.559323951E-06 0.291432656E-06 0.146859733E-06 0.713784232E-07 0.333576757E-07 0.149377950E-07 0.638470565E-08 0.259316368E-08 0.995752258E-09 0.359395708E-09 0.121104626E-09 0.377992360E-10 0.108262314E-10 0.281361978E-11 0.654455602E-12 0.133921303E-12 0.235788850E-13 0.346663332E-14 0.415740976E-15 0.507385526E-14 0.172195363E-11 0.305663356E-09 0.432332115E-09 0.325555923E-11 0.124663937E-13 0.126964614E-15 0.873412306E-15 0.609981163E-14 0.355849451E-13 0.178667655E-12 0.789412426E-12 0.312256297E-11 0.112107155E-10 0.369443295E-10 0.112801914E-09 0.321640992E-09 0.862277139E-09 0.218613194E-08 0.526822275E-08 0.121210961E-07 0.267307581E-07 0.566995126E-07 0.116034144E-06 0.229734667E-06 0.441135768E-06 0.823349637E-06 0.149667653E-05 0.265450603E-05 0.460105139E-05 0.754777875E-05 0.117462496E-04 0.173796507E-04 0.244959483E-04 0.329460599E-04 0.423443125E-04 0.520667163E-04 0.612963340E-04 0.691151217E-04 0.746308942E-04 0.771184132E-04 0.761497795E-04 0.716867871E-04 0.641152146E-04 0.542078596E-04 0.430189320E-04 0.317218000E-04 0.214173997E-04 0.129500449E-04 0.677012713E-05 0.287972944E-05 0.883612302E-06 0.143508501E-06 0.826495393E-12
0.171735758E-05 0.637675521E-05 0.162143606E-04 0.332212585E-04 0.585682865E-04 0.921941537E-04 0.132648041E-03 0.177205031E-03 0.222215385E-03 0.263611670E-03 0.297479681E-03 0.320598803E-03 0.330870418E-03 0.327573362E-03 0.311415934E-03 0.284382055E-03 0.249403791E-03 0.209917867E-03 0.169382241E-03 0.130836052E-03 0.965731961E-04 0.679765144E-04 0.455224799E-04 0.289299860E-04 0.173990102E-04 0.101868372E-04 0.579657308E-05 0.319972924E-05 0.170986254E-05 0.882472193E-06 0.438725721E-06 0.209485037E-06 0.957479358E-07 0.417326547E-07 0.172709775E-07 0.675310785E-08 0.248061638E-08 0.850368609E-09 0.269943207E-09 0.786234133E-10 0.207791302E-10 0.491578046E-11 0.102337941E-11 0.183388041E-12 0.274576301E-13 0.330289148E-14 0.730420312E-14 0.238033052E-11 0.421256696E-09 0.595375471E-09 0.448661117E-11 0.172964365E-13 0.861265801E-15 0.705445927E-14 0.483846734E-13 0.277387813E-12 0.136940491E-11 0.595153180E-11 0.231626055E-10 0.818300705E-10 0.265352185E-09 0.797111432E-09 0.223550756E-08 0.589211746E-08 0.146785197E-07 0.347342777E-07 0.784110483E-07 0.169506961E-06 0.352081770E-06 0.704745958E-06 0.136300821E-05 0.255304917E-05 0.464112236E-05 0.820354762E-05 0.141227983E-04 0.237153472E-04 0.377381621E-04 0.570478660E-04 0.821080321E-04 0.112747002E-03 0.147971208E-03 0.185892452E-03 0.223810639E-03 0.258462911E-03 0.286414259E-03 0.304533780E-03 0.310476229E-03 0.303088775E-03 0.282662717E-03 0.250979152E-03 0.211121587E-03 0.167073900E-03 0.123147911E-03 0.833273225E-04 0.506432261E-04 0.267059895E-04 0.115112543E-04 0.360326226E-05 0.603398860E-06 0.342059259E-11
0.578949175E-05 0.209759583E-04 0.524114257E-04 0.106034902E-03 0.185249693E-03 0.289818505E-03 0.415487331E-03 0.554349390E-03 0.695818977E-03 0.828008750E-03 0.939271937E-03 0.101968064E-02 0.106224604E-02 0.106372731E-02 0.102493982E-02 0.950530171E-03 0.848260184E-03 0.727905310E-03 0.599939260E-03 0.474206405E-03 0.358799589E-03 0.259315973E-03 0.178588234E-03 0.116888921E-03 0.725018472E-04 0.437033923E-04 0.255617506E-04 0.144813785E-04 0.793070012E-05 0.418913669E-05 0.212889086E-05 0.103790785E-05 0.483877159E-06 0.214923062E-06 0.905679798E-07 0.360338710E-07 0.134606291E-07 0.469042849E-08 0.151297397E-08 0.447685805E-09 0.120191967E-09 0.288860793E-10 0.611026073E-11 0.111290545E-11 0.169437652E-12 0.206819696E-13 0.110447133E-13 0.308839824E-11 0.544643330E-09 0.769171504E-09 0.580358981E-11 0.228327387E-13 0.531755256E-14 0.443420799E-13 0.299138942E-12 0.168774229E-11 0.820330956E-11 0.351116358E-10 0.134599623E-09 0.468398487E-09 0.149598534E-08 0.442514025E-08 0.122161685E-07 0.316793383E-07 0.776026496E-07 0.180441134E-06 0.399927814E-06 0.848036564E-06 0.172600232E-05 0.338144287E-05 0.639283462E-05 0.116892634E-04 0.207130925E-04 0.356313431E-04 0.595974852E-04 0.970588808E-04 0.149983403E-03 0.220472633E-03 0.309020892E-03 0.413871545E-03 0.530644087E-03 0.652369752E-03 0.769997365E-03 0.873333018E-03 0.952289207E-03 0.998252886E-03 0.100535189E-02 0.971429166E-03 0.898545666E-03 0.792923267E-03 0.664287014E-03 0.524678442E-03 0.386851083E-03 0.262465415E-03 0.160369847E-03 0.852862140E-04 0.372220129E-04 0.118658418E-04 0.204282492E-05 0.113548580E-10
0.164760586E-04 0.583329711E-04 0.143365469E-03 0.286524621E-03 0.496061635E-03 0.771071471E-03 0.110082002E-02 0.146576995E-02 0.183993368E-02 0.219405722E-02 0.249912892E-02 0.272974069E-02 0.286693918E-02 0.290025398E-02 0.282872468E-02 0.266080815E-02 0.241318624E-02 0.210860278E-02 0.177299872E-02 0.143234350E-02 0.110962603E-02 0.822487986E-03 0.581862696E-03 0.391794689E-03 0.250356825E-03 0.155225091E-03 0.932425319E-04 0.541728950E-04 0.303835222E-04 0.164152389E-04 0.852218636E-05 0.423983738E-05 0.201500507E-05 0.911537143E-06 0.390893831E-06 0.158152048E-06 0.600401648E-07 0.212511004E-07 0.696019153E-08 0.209055995E-08 0.569632119E-09 0.138937653E-09 0.298290732E-10 0.551540974E-11 0.852736339E-12 0.105693842E-12 0.213220487E-13 0.385164643E-11 0.676464829E-09 0.954597068E-09 0.721557840E-11 0.304039766E-13 0.274710623E-13 0.227082377E-12 0.150887462E-11 0.838861446E-11 0.401896190E-10 0.169589370E-09 0.640977049E-09 0.219907781E-08 0.692313495E-08 0.201802255E-07 0.548758585E-07 0.140102387E-06 0.337674379E-06 0.771955854E-06 0.168078668E-05 0.349795982E-05 0.698012536E-05 0.133923277E-04 0.247656153E-04 0.442358105E-04 0.764633005E-04 0.128118903E-03 0.208399593E-03 0.329512317E-03 0.495006156E-03 0.708364532E-03 0.967984786E-03 0.126592314E-02 0.158754154E-02 0.191226229E-02 0.221541733E-02 0.247095106E-02 0.265457947E-02 0.274694059E-02 0.273626461E-02 0.262022554E-02 0.240666582E-02 0.211309525E-02 0.176492136E-02 0.139259442E-02 0.102787127E-02 0.699639262E-03 0.429889013E-03 0.230527992E-03 0.101799422E-03 0.329981303E-04 0.582406847E-05 0.316253933E-10
0.408588749E-04 0.141544544E-03 0.342470070E-03 0.676373544E-03 0.116038509E-02 0.179141050E-02 0.254535745E-02 0.337975239E-02 0.423882715E-02 0.506000454E-02 0.578083098E-02 0.634554122E-02 0.671068113E-02 0.684932061E-02 0.675355038E-02 0.643504504E-02 0.592361530E-02 0.526379561E-02 0.450976053E-02 0.371913100E-02 0.294644642E-02 0.223728758E-02 0.162399921E-02 0.112371612E-02 0.738933042E-03 0.470795756E-03 0.290204160E-03 0.172784814E-03 0.991825582E-04 0.547753771E-04 0.290353946E-04 0.147331057E-04 0.713434565E-05 0.328538158E-05 0.143298723E-05 0.589262072E-06 0.227219061E-06 0.816423764E-07 0.271326872E-07 0.826653412E-08 0.228424812E-08 0.564942482E-09 0.122986218E-09 0.230608154E-10 0.361652071E-11 0.454779660E-12 0.569801164E-13 0.467702569E-11 0.817422574E-09 0.115260967E-08 0.873285385E-11 0.449750304E-13 0.119967960E-12 0.979089531E-12 0.641558378E-11 0.351852159E-10 0.166326869E-09 0.692574609E-09 0.258297894E-08 0.874322659E-08 0.271507048E-07 0.780368978E-07 0.209148226E-06 0.525989265E-06 0.124797270E-05 0.280640961E-05 0.600563408E-05 0.122728634E-04 0.240236404E-04 0.451647466E-04 0.817427208E-04 0.142720135E-03 0.240823618E-03 0.393358001E-03 0.622827036E-03 0.957153738E-03 0.139936211E-02 0.195163488E-02 0.260307686E-02 0.332810637E-02 0.408712449E-02 0.482955948E-02 0.549888797E-02 0.603888463E-02 0.640016934E-02 0.654618628E-02 0.645781541E-02 0.613620551E-02 0.560341403E-02 0.490081869E-02 0.408525905E-02 0.322324503E-02 0.238351012E-02 0.162861182E-02 0.100663246E-02 0.544283655E-03 0.243045273E-03 0.799942063E-04 0.144359847E-04 0.763189581E-10
0.904250992E-04 0.306857837E-03 0.731458131E-03 0.142796722E-02 0.242733234E-02 0.372035615E-02 0.525777740E-02 0.695636403E-02 0.870895106E-02 0.103963688E-01 0.118996417E-01 0.131112318E-01 0.139446231E-01 0.143417073E-01 0.142776528E-01 0.137629425E-01 0.128423618E-01 0.115907481E-01 0.101055987E-01 0.849700719E-02 0.687590335E-02 0.534213800E-02 0.397425331E-02 0.282275141E-02 0.190805190E-02 0.124805968E-02 0.788817357E-03 0.480961549E-03 0.282389694E-03 0.159332238E-03 0.861924709E-04 0.445865444E-04 0.219889589E-04 0.103034126E-04 0.456897806E-05 0.190870242E-05 0.747198044E-06 0.272404549E-06 0.918091274E-07 0.283555970E-07 0.794057620E-08 0.198985628E-08 0.438878101E-09 0.833757924E-10 0.132492030E-10 0.168858330E-11 0.178447602E-12 0.557484007E-11 0.968283564E-09 0.136425615E-08 0.103674794E-10 0.826560500E-13 0.452182156E-12 0.364353556E-11 0.235694589E-10 0.127639288E-09 0.595863969E-09 0.245027554E-08 0.902380748E-08 0.301559879E-07 0.924239743E-07 0.262078601E-06 0.692627054E-06 0.171665022E-05 0.401122907E-05 0.887690931E-05 0.186785583E-04 0.374977972E-04 0.720348980E-04 0.132765883E-03 0.235303611E-03 0.401828554E-03 0.662354636E-03 0.105549244E-02 0.162829913E-02 0.243478641E-02 0.346816145E-02 0.471932627E-02 0.615101727E-02 0.769738620E-02 0.926819537E-02 0.107570505E-01 0.120523693E-01 0.130493464E-01 0.136613296E-01 0.138292909E-01 0.135284206E-01 0.127715962E-01 0.116092768E-01 0.101260068E-01 0.843337551E-02 0.665991567E-02 0.493807346E-02 0.338918739E-02 0.210804865E-02 0.114928780E-02 0.518699584E-03 0.173125896E-03 0.318658895E-04 0.163508498E-09
0.181938070E-03 0.605395704E-03 0.142262829E-02 0.274581881E-02 0.462393509E-02 0.703308731E-02 0.987995137E-02 0.130147459E-01 0.162496045E-01 0.193787310E-01 0.221978314E-01 0.245212745E-01 0.261964072E-01 0.271146335E-01 0.272192508E-01 0.265098102E-01 0.250426400E-01 0.229270291E-01 0.203165393E-01 0.173954573E-01 0.143610127E-01 0.114031294E-01 0.868449826E-02 0.632444723E-02 0.438967161E-02 0.294505130E-02 0.190705573E-02 0.118997670E-02 0.714223948E-03 0.411503250E-03 0.227072524E-03 0.119697579E-03 0.600973945E-04 0.286424511E-04 0.129081145E-04 0.547600075E-05 0.217541333E-05 0.804330625E-06 0.274782849E-06 0.859870397E-07 0.243883722E-07 0.618836493E-08 0.138181544E-08 0.265747868E-09 0.427522531E-10 0.551680056E-11 0.554586704E-12 0.656331847E-11 0.112988718E-08 0.159068148E-08 0.121346466E-10 0.189152567E-12 0.149890235E-11 0.119334369E-10 0.762816130E-10 0.408261508E-09 0.188363591E-08 0.765471508E-08 0.278544565E-07 0.919506320E-07 0.278283608E-06 0.778867673E-06 0.203063041E-05 0.496188932E-05 0.114229106E-04 0.248864417E-04 0.515089450E-04 0.101622660E-03 0.191669707E-03 0.346479646E-03 0.601635198E-03 0.100547855E-02 0.162012572E-02 0.252073817E-02 0.379232015E-02 0.552352052E-02 0.767403701E-02 0.102001578E-01 0.130063305E-01 0.159497242E-01 0.188523792E-01 0.215186831E-01 0.237553176E-01 0.253906660E-01 0.262914449E-01 0.263753105E-01 0.256185606E-01 0.240593757E-01 0.217961688E-01 0.189815722E-01 0.158115327E-01 0.125099244E-01 0.930825807E-02 0.642133458E-02 0.402086508E-02 0.221052673E-02 0.100794458E-02 0.340777566E-03 0.638301281E-04 0.317007809E-09
0.337778154E-03 0.110299780E-02 0.255658501E-02 0.487922644E-02 0.813834742E-02 0.122788744E-01 0.171350259E-01 0.224557556E-01 0.279362127E-01 0.332493670E-01 0.380744413E-01 0.421204455E-01 0.451449379E-01 0.469682664E-01 0.474840663E-01 0.466662534E-01 0.445722193E-01 0.413413309E-01 0.371874683E-01 0.323842764E-01 0.272427127E-01 0.220819339E-01 0.171966869E-01 0.128262844E-01 0.913121272E-02 0.627781870E-02 0.416175276E-02 0.265589869E-02 0.162863929E-02 0.957722310E-03 0.538855558E-03 0.289342541E-03 0.147841376E-03 0.716437498E-04 0.328017049E-04 0.141262262E-04 0.569279155E-05 0.213383601E-05 0.738607014E-06 0.234068310E-06 0.672050859E-07 0.172570260E-07 0.389861299E-08 0.758470620E-09 0.123428795E-09 0.161121273E-10 0.160311326E-11 0.767826688E-11 0.130315447E-08 0.183313986E-08 0.140554608E-10 0.479315914E-12 0.443859749E-11 0.349457512E-10 0.220925528E-09 0.116944454E-08 0.533618305E-08 0.214433662E-07 0.771414363E-07 0.251673839E-06 0.752466008E-06 0.207954849E-05 0.535056006E-05 0.128944621E-04 0.292560217E-04 0.627695626E-04 0.127836684E-03 0.247949967E-03 0.459324277E-03 0.814720697E-03 0.138671242E-02 0.226930785E-02 0.357664330E-02 0.543750776E-02 0.798487384E-02 0.113404794E-01 0.153845707E-01 0.199966915E-01 0.249739531E-01 0.300470684E-01 0.349063352E-01 0.392325222E-01 0.427276418E-01 0.451416783E-01 0.462930463E-01 0.460823588E-01 0.444994010E-01 0.416250117E-01 0.376275145E-01 0.327544026E-01 0.273179766E-01 0.216749012E-01 0.161977317E-01 0.112386923E-01 0.708776060E-02 0.392981013E-02 0.180981925E-02 0.619208091E-03 0.117785617E-03 0.564841840E-09
0.585664937E-03 0.187809451E-02 0.429566763E-02 0.810709875E-02 0.133905960E-01 0.200315826E-01 0.277516302E-01 0.361546203E-01 0.447773784E-01 0.531362146E-01 0.607652664E-01 0.672456175E-01 0.722266287E-01 0.754411817E-01 0.767171532E-01 0.759860575E-01 0.732895210E-01 0.687820464E-01 0.627283305E-01 0.554916970E-01 0.475113802E-01 0.392673202E-01 0.312346909E-01 0.238338429E-01 0.173848644E-01 0.122371772E-01 0.829890277E-02 0.541306799E-02 0.338956062E-02 0.203345856E-02 0.116609840E-02 0.637584191E-03 0.331428164E-03 0.163252829E-03 0.759114409E-04 0.331761948E-04 0.135581668E-04 0.515020383E-05 0.180553457E-05 0.579209882E-06 0.168267633E-06 0.437026131E-07 0.998315208E-08 0.196345962E-08 0.322977561E-09 0.426153210E-10 0.425071827E-11 0.899116805E-11 0.148909729E-08 0.209300755E-08 0.161621393E-10 0.121192498E-11 0.118953736E-10 0.926917501E-10 0.579991832E-09 0.303856429E-08 0.137207712E-07 0.545518581E-07 0.194109788E-06 0.626153962E-06 0.185020667E-05 0.505089429E-05 0.128294969E-04 0.305029207E-04 0.682292666E-04 0.144207006E-03 0.289078802E-03 0.551403733E-03 0.100363104E-02 0.174744288E-02 0.291676517E-02 0.467634760E-02 0.721385237E-02 0.107240677E-01 0.153852552E-01 0.213296283E-01 0.282849204E-01 0.359915309E-01 0.440764539E-01 0.520892069E-01 0.595473573E-01 0.659830049E-01 0.709833801E-01 0.742217153E-01 0.754775852E-01 0.746483430E-01 0.717530474E-01 0.669322163E-01 0.604429729E-01 0.526501760E-01 0.440109558E-01 0.350510627E-01 0.263289548E-01 0.183859263E-01 0.116835721E-01 0.653435662E-02 0.303875143E-02 0.105124817E-02 0.202707670E-03 0.936734579E-09
0.957821612E-03 0.301800226E-02 0.681426795E-02 0.127177564E-01 0.207963903E-01 0.308319665E-01 0.423797667E-01 0.548466258E-01 0.675678179E-01 0.798714608E-01 0.911263227E-01 0.100773804E+00 0.108348161E+00 0.113488808E+00 0.115949117E+00 0.115604602E+00 0.112461507E+00 0.106665425E+00 0.985066667E-01 0.884180441E-01 0.769587904E-01 0.647805333E-01 0.525734201E-01 0.409970284E-01 0.306067225E-01 0.220380425E-01 0.152779827E-01 0.101791304E-01 0.650538551E-02 0.397970015E-02 0.232514390E-02 0.129408971E-02 0.684141472E-03 0.342431915E-03 0.161666278E-03 0.716798313E-04 0.296968210E-04 0.114281511E-04 0.405629635E-05 0.131670788E-05 0.386874746E-06 0.101580667E-06 0.234506530E-07 0.465989336E-08 0.774301956E-09 0.103190637E-09 0.103608485E-10 0.106393488E-10 0.168882897E-08 0.237179476E-08 0.185067846E-10 0.291529127E-11 0.291673422E-10 0.225116037E-09 0.139514267E-08 0.723850935E-08 0.323639426E-07 0.127373610E-06 0.448494234E-06 0.143103819E-05 0.418063337E-05 0.112772786E-04 0.282875189E-04 0.663720566E-04 0.146405990E-03 0.304917921E-03 0.601819425E-03 0.112928054E-02 0.202024868E-02 0.345414667E-02 0.565655297E-02 0.888953824E-02 0.134301996E-01 0.195370428E-01 0.274069235E-01 0.371287428E-01 0.481797792E-01 0.600841008E-01 0.722325072E-01 0.839465559E-01 0.945465565E-01 0.103411540E+00 0.110024393E+00 0.114000216E+00 0.115100525E+00 0.113238044E+00 0.108475581E+00 0.101024017E+00 0.912382975E-01 0.796119720E-01 0.667648017E-01 0.534204878E-01 0.403660834E-01 0.283883270E-01 0.181856528E-01 0.102615925E-01 0.481808884E-02 0.168420200E-02 0.328680937E-03 0.146120549E-08