<?xml version="1.0"?>
<VTKFile type="StructuredGrid">
<StructuredGrid WholeExtent="     0   100     0   100     0     0">
<Piece Extent="     0   100     0   100     0     0">
<Points>
<DataArray type="Float32" NumberOfComponents="3"/>
0.000000000E+00 0.000000000E+00 0.000000000E+00 0.199999996E-01 0.000000000E+00 0.000000000E+00 0.399999991E-01 0.000000000E+00 0.000000000E+00 0.599999987E-01 0.000000000E+00 0.000000000E+00 0.799999982E-01 0.000000000E+00 0.000000000E+00 0.100000001E+00 0.000000000E+00 0.000000000E+00 0.119999997E+00 0.000000000E+00 0.000000000E+00 0.140000001E+00 0.000000000E+00 0.000000000E+00 0.159999996E+00 0.000000000E+00 0.000000000E+00 0.180000007E+00 0.000000000E+00 0.000000000E+00 0.200000003E+00 0.000000000E+00 0.000000000E+00 0.219999999E+00 0.000000000E+00 0.000000000E+00 0.239999995E+00 0.000000000E+00 0.000000000E+00 0.259999990E+00 0.000000000E+00 0.000000000E+00 0.280000001E+00 0.000000000E+00 0.000000000E+00 0.300000012E+00 0.000000000E+00 0.000000000E+00 0.319999993E+00 0.000000000E+00 0.000000000E+00 0.340000004E+00 0.000000000E+00 0.000000000E+00 0.360000014E+00 0.000000000E+00 0.000000000E+00 0.379999995E+00 0.000000000E+00 0.000000000E+00 0.400000006E+00 0.000000000E+00 0.000000000E+00 0.419999987E+00 0.000000000E+00 0.000000000E+00 0.439999998E+00 0.000000000E+00 0.000000000E+00 0.460000008E+00 0.000000000E+00 0.000000000E+00 0.479999989E+00 0.000000000E+00 0.000000000E+00 0.500000000E+00 0.000000000E+00 0.000000000E+00 0.519999981E+00 0.000000000E+00 0.000000000E+00 0.540000021E+00 0.000000000E+00 0.000000000E+00 0.560000002E+00 0.000000000E+00 0.000000000E+00 0.579999983E+00 0.000000000E+00 0.000000000E+00 0.600000024E+00 0.000000000E+00 0.000000000E+00 0.620000005E+00 0.000000000E+00 0.000000000E+00 0.639999986E+00 0.000000000E+00 0.000000000E+00 0.660000026E+00 0.000000000E+00 0.000000000E+00 0.680000007E+00 0.000000000E+00 0.000000000E+00 0.699999988E+00 0.000000000E+00 0.000000000E+00 0.720000029E+00 0.000000000E+00 0.000000000E+00 0.740000010E+00 0.000000000E+00 0.000000000E+00 0.759999990E+00 0.000000000E+00 0.000000000E+00 0.779999971E+00 0.000000000E+00 0.000000000E+00 0.800000012E+00 0.000000000E+00 0.000000000E+00 0.819999993E+00 0.000000000E+00 0.000000000E+00 0.839999974E+00 0.000000000E+00 0.000000000E+00 0.860000014E+00 0.000000000E+00 0.000000000E+00 0.879999995E+00 0.000000000E+00 0.000000000E+00 0.899999976E+00 0.000000000E+00 0.000000000E+00 0.920000017E+00 0.000000000E+00 0.000000000E+00 0.939999998E+00 0.000000000E+00 0.000000000E+00 0.959999979E+00 0.000000000E+00 0.000000000E+00 0.980000019E+00 0.000000000E+00 0.000000000E+00 0.100000000E+01 0.000000000E+00 0.000000000E+00 0.101999998E+01 0.000000000E+00 0.000000000E+00 0.103999996E+01 0.000000000E+00 0.000000000E+00 0.105999994E+01 0.000000000E+00 0.000000000E+00 0.108000004E+01 0.000000000E+00 0.000000000E+00 0.110000002E+01 0.000000000E+00 0.000000000E+00 0.112000000E+01 0.000000000E+00 0.000000000E+00 0.113999999E+01 0.000000000E+00 0.000000000E+00 0.115999997E+01 0.000000000E+00 0.000000000E+00 0.117999995E+01 0.000000000E+00 0.000000000E+00 0.120000005E+01 0.000000000E+00 0.000000000E+00 0.122000003E+01 0.000000000E+00 0.000000000E+00 0.124000001E+01 0.000000000E+00 0.000000000E+00 0.125999999E+01 0.000000000E+00 0.000000000E+00 0.127999997E+01 0.000000000E+00 0.000000000E+00 0.129999995E+01 0.000000000E+00 0.000000000E+00 0.132000005E+01 0.000000000E+00 0.000000000E+00 0.134000003E+01 0.000000000E+00 0.000000000E+00 0.136000001E+01 0.000000000E+00 0.000000000E+00 0.138000000E+01 0.000000000E+00 0.000000000E+00 0.139999998E+01 0.000000000E+00 0.000000000E+00 0.141999996E+01 0.000000000E+00 0.000000000E+00 0.144000006E+01 0.000000000E+00 0.000000000E+00 0.146000004E+01 0.000000000E+00 0.000000000E+00 0.148000002E+01 0.000000000E+00 0.000000000E+00 0.150000000E+01 0.000000000E+00 0.000000000E+00 0.151999998E+01 0.000000000E+00 0.000000000E+00 0.153999996E+01 0.000000000E+00 0.000000000E+00 0.155999994E+01 0.000000000E+00 0.000000000E+00 0.158000004E+01 0.000000000E+00 0.000000000E+00 0.160000002E+01 0.000000000E+00 0.000000000E+00 0.162000000E+01 0.000000000E+00 0.000000000E+00 0.163999999E+01 0.000000000E+00 0.000000000E+00 0.165999997E+01 0.000000000E+00 0.000000000E+00 0.167999995E+01 0.000000000E+00 0.000000000E+00 0.170000005E+01 0.000000000E+00 0.000000000E+00 0.172000003E+01 0.000000000E+00 0.000000000E+00 0.174000001E+01 0.000000000E+00 0.000000000E+00 0.175999999E+01 0.000000000E+00 0.000000000E+00 0.177999997E+01 0.000000000E+00 0.000000000E+00 0.179999995E+01 0.000000000E+00 0.000000000E+00 0.182000005E+01 0.000000000E+00 0.000000000E+00 0.184000003E+01 0.000000000E+00 0.000000000E+00 0.186000001E+01 0.000000000E+00 0.000000000E+00 0.188000000E+01 0.000000000E+00 0.000000000E+00 0.189999998E+01 0.000000000E+00 0.000000000E+00 0.191999996E+01 0.000000000E+00 0.000000000E+00 0.194000006E+01 0.000000000E+00 0.000000000E+00 0.196000004E+01 0.000000000E+00 0.000000000E+00 0.198000002E+01 0.000000000E+00 0.000000000E+00 0.200000000E+01 0.000000000E+00 0.000000000E+00
0.000000000E+00 0.999999978E-02 0.000000000E+00 0.199999996E-01 0.999999978E-02 0.000000000E+00 0.399999991E-01 0.999999978E-02 0.000000000E+00 0.599999987E-01 0.999999978E-02 0.000000000E+00 0.799999982E-01 0.999999978E-02 0.000000000E+00 0.100000001E+00 0.999999978E-02 0.000000000E+00 0.119999997E+00 0.999999978E-02 0.000000000E+00 0.140000001E+00 0.999999978E-02 0.000000000E+00 0.159999996E+00 0.999999978E-02 0.000000000E+00 0.180000007E+00 0.999999978E-02 0.000000000E+00 0.200000003E+00 0.999999978E-02 0.000000000E+00 0.219999999E+00 0.999999978E-02 0.000000000E+00 0.239999995E+00 0.999999978E-02 0.000000000E+00 0.259999990E+00 0.999999978E-02 0.000000000E+00 0.280000001E+00 0.999999978E-02 0.000000000E+00 0.300000012E+00 0.999999978E-02 0.000000000E+00 0.319999993E+00 0.999999978E-02 0.000000000E+00 0.340000004E+00 0.999999978E-02 0.000000000E+00 0.360000014E+00 0.999999978E-02 0.000000000E+00 0.379999995E+00 0.999999978E-02 0.000000000E+00 0.400000006E+00 0.999999978E-02 0.000000000E+00 0.419999987E+00 0.999999978E-02 0.000000000E+00 0.439999998E+00 0.999999978E-02 0.000000000E+00 0.460000008E+00 0.999999978E-02 0.000000000E+00 0.479999989E+00 0.999999978E-02 0.000000000E+00 0.500000000E+00 0.999999978E-02 0.000000000E+00 0.519999981E+00 0.999999978E-02 0.000000000E+00 0.540000021E+00 0.999999978E-02 0.000000000E+00 0.560000002E+00 0.999999978E-02 0.000000000E+00 0.579999983E+00 0.999999978E-02 0.000000000E+00 0.600000024E+00 0.999999978E-02 0.000000000E+00 0.620000005E+00 0.999999978E-02 0.000000000E+00 0.639999986E+00 0.999999978E-02 0.000000000E+00 0.660000026E+00 0.999999978E-02 0.000000000E+00 0.680000007E+00 0.999999978E-02 0.000000000E+00 0.699999988E+00 0.999999978E-02 0.000000000E+00 0.720000029E+00 0.999999978E-02 0.000000000E+00 0.740000010E+00 0.999999978E-02 0.000000000E+00 0.759999990E+00 0.999999978E-02 0.000000000E+00 0.779999971E+00 0.999999978E-02 0.000000000E+00 0.800000012E+00 0.999999978E-02 0.000000000E+00 0.819999993E+00 0.999999978E-02 0.000000000E+00 0.839999974E+00 0.999999978E-02 0.000000000E+00 0.860000014E+00 0.999999978E-02 0.000000000E+00 0.879999995E+00 0.999999978E-02 0.000000000E+00 0.899999976E+00 0.999999978E-02 0.000000000E+00 0.920000017E+00 0.999999978E-02 0.000000000E+00 0.939999998E+00 0.999999978E-02 0.000000000E+00 0.959999979E+00 0.999999978E-02 0.000000000E+00 0.980000019E+00 0.999999978E-02 0.000000000E+00 0.100000000E+01 0.999999978E-02 0.000000000E+00 0.101999998E+01 0.999999978E-02 0.000000000E+00 0.103999996E+01 0.999999978E-02 0.000000000E+00 0.105999994E+01 0.999999978E-02 0.000000000E+00 0.108000004E+01 0.999999978E-02 0.000000000E+00 0.110000002E+01 0.999999978E-02 0.000000000E+00 0.112000000E+01 0.999999978E-02 0.000000000E+00 0.113999999E+01 0.999999978E-02 0.000000000E+00 0.115999997E+01 0.999999978E-02 0.000000000E+00 0.117999995E+01 0.999999978E-02 0.000000000E+00 0.120000005E+01 0.999999978E-02 0.000000000E+00 0.122000003E+01 0.999999978E-02 0.000000000E+00 0.124000001E+01 0.999999978E-02 0.000000000E+00 0.125999999E+01 0.999999978E-02 0.000000000E+00 0.127999997E+01 0.999999978E-02 0.000000000E+00 0.129999995E+01 0.999999978E-02 0.000000000E+00 0.132000005E+01 0.999999978E-02 0.000000000E+00 0.134000003E+01 0.999999978E-02 0.000000000E+00 0.136000001E+01 0.999999978E-02 0.000000000E+00 0.138000000E+01 0.999999978E-02 0.000000000E+00 0.139999998E+01 0.999999978E-02 0.000000000E+00 0.141999996E+01 0.999999978E-02 0.000000000E+00 0.144000006E+01 0.999999978E-02 0.000000000E+00 0.146000004E+01 0.999999978E-02 0.000000000E+00 0.148000002E+01 0.999999978E-02 0.000000000E+00 0.150000000E+01 0.999999978E-02 0.000000000E+00 0.151999998E+01 0.999999978E-02 0.000000000E+00 0.153999996E+01 0.999999978E-02 0.000000000E+00 0.155999994E+01 0.999999978E-02 0.000000000E+00 0.158000004E+01 0.999999978E-02 0.000000000E+00 0.160000002E+01 0.999999978E-02 0.000000000E+00 0.162000000E+01 0.999999978E-02 0.000000000E+00 0.163999999E+01 0.999999978E-02 0.000000000E+00 0.165999997E+01 0.999999978E-02 0.000000000E+00 0.167999995E+01 0.999999978E-02 0.000000000E+00 0.170000005E+01 0.999999978E-02 0.000000000E+00 0.172000003E+01 0.999999978E-02 0.000000000E+00 0.174000001E+01 0.999999978E-02 0.000000000E+00 0.175999999E+01 0.999999978E-02 0.000000000E+00 0.177999997E+01 0.999999978E-02 0.000000000E+00 0.179999995E+01 0.999999978E-02 0.000000000E+00 0.182000005E+01 0.999999978E-02 0.000000000E+00 0.184000003E+01 0.999999978E-02 0.000000000E+00 0.186000001E+01 0.999999978E-02 0.000000000E+00 0.188000000E+01 0.999999978E-02 0.000000000E+00 0.189999998E+01 0.999999978E-02 0.000000000E+00 0.191999996E+01 0.999999978E-02 0.000000000E+00 0.194000006E+01 0.999999978E-02 0.000000000E+00 0.196000004E+01 0.999999978E-02 0.000000000E+00 0.198000002E+01 0.999999978E-02 0.000000000E+00 0.200000000E+01 0.999999978E-02 0.000000000E+00
[...]
<CellData Scalars="Temperature, U, V">
<DataArray type="Float32" Name="Temp, K"/>
0.000000000E+00 0.000000000E+00 0.000000000E+00 0.000000000E+00 0.000000000E+00 0.000000000E+00 0.000000000E+00 0.000000000E+00 0.000000000E+00 0.000000000E+00 0.000000000E+00 0.489193294E-41 0.140897758E-39 0.125565451E-38 0.425535948E-38 0.631405750E-38 0.471216877E-38 0.204017986E-38 0.571076768E-39 0.111058508E-39 0.157253714E-40 0.160728934E-41 0.140129846E-42 0.000000000E+00 0.000000000E+00 0.000000000E+00 0.000000000E+00 0.000000000E+00 0.000000000E+00 0.000000000E+00 0.000000000E+00 0.000000000E+00 0.000000000E+00 0.000000000E+00 0.000000000E+00 0.000000000E+00 0.000000000E+00 0.238220739E-43 0.980908925E-43 0.103827332E-37 0.115757908E-31 0.919907958E-26 0.397254984E-20 0.552352439E-18 0.749921975E-13 0.469002831E-11 0.141391288E-09 0.243752085E-08 0.237832563E-07 0.328715224E-07 0.462617455E-08 0.361763564E-09 0.170373212E-10 0.469042611E-12 0.606782724E-14 0.478114142E-19 0.302848952E-21 0.717270478E-27 0.924306085E-33 0.852240299E-39 0.770714155E-43 0.154142831E-43 0.000000000E+00 0.000000000E+00 0.000000000E+00 0.000000000E+00 0.000000000E+00 0.000000000E+00 0.000000000E+00 0.000000000E+00 0.000000000E+00 0.000000000E+00 0.000000000E+00 0.000000000E+00 0.000000000E+00 0.000000000E+00 0.700649232E-43 0.146856079E-41 0.140480171E-40 0.992455624E-40 0.512508098E-39 0.183379102E-38 0.421356856E-38 0.553617711E-38 0.358832319E-38 0.100146037E-38 0.105114200E-39 0.342477345E-41 0.000000000E+00 0.000000000E+00 0.000000000E+00 0.000000000E+00 0.000000000E+00 0.000000000E+00 0.000000000E+00 0.000000000E+00 0.000000000E+00 0.000000000E+00 0.000000000E+00 0.000000000E+00
0.000000000E+00 0.000000000E+00 0.000000000E+00 0.000000000E+00 0.000000000E+00 0.000000000E+00 0.000000000E+00 0.000000000E+00 0.000000000E+00 0.280259693E-42 0.752020834E-40 0.420083356E-38 0.696886466E-37 0.437202924E-36 0.119054631E-35 0.156941231E-35 0.112444646E-35 0.491190088E-36 0.142850944E-36 0.293942868E-37 0.446293242E-38 0.515024830E-39 0.461980078E-40 0.321597998E-41 0.140129846E-42 0.000000000E+00 0.000000000E+00 0.000000000E+00 0.000000000E+00 0.000000000E+00 0.000000000E+00 0.000000000E+00 0.000000000E+00 0.000000000E+00 0.000000000E+00 0.000000000E+00 0.126116862E-43 0.546506401E-43 0.231605209E-39 0.267106916E-33 0.236284641E-27 0.145442992E-21 0.490428205E-16 0.569191995E-14 0.450724663E-12 0.191070840E-10 0.491837127E-09 0.786478971E-08 0.742944692E-07 0.102214543E-06 0.144684202E-07 0.117571686E-08 0.601740185E-10 0.197119946E-11 0.396590279E-13 0.449317468E-15 0.336157557E-17 0.101426434E-22 0.168204492E-28 0.195519493E-34 0.175176321E-40 0.560519386E-43 0.980908925E-44 0.000000000E+00 0.000000000E+00 0.000000000E+00 0.000000000E+00 0.000000000E+00 0.000000000E+00 0.000000000E+00 0.000000000E+00 0.000000000E+00 0.000000000E+00 0.000000000E+00 0.140129846E-42 0.286565536E-41 0.406068269E-40 0.454918935E-39 0.395545779E-38 0.261738030E-37 0.127773185E-36 0.440259772E-36 0.100357947E-35 0.137740007E-35 0.100909776E-35 0.351698337E-36 0.524881899E-37 0.293344037E-38 0.484330788E-40 0.140129846E-42 0.000000000E+00 0.000000000E+00 0.000000000E+00 0.000000000E+00 0.000000000E+00 0.000000000E+00 0.000000000E+00 0.000000000E+00 0.000000000E+00 0.000000000E+00
0.000000000E+00 0.000000000E+00 0.000000000E+00 0.000000000E+00 0.000000000E+00 0.000000000E+00 0.000000000E+00 0.000000000E+00 0.769312857E-42 0.476651673E-39 0.500937688E-37 0.149516582E-35 0.166823197E-34 0.806477803E-34 0.186555913E-33 0.225944501E-33 0.158013119E-33 0.701158962E-34 0.212409060E-34 0.462817180E-35 0.752438533E-36 0.937063529E-37 0.911281207E-38 0.701841737E-39 0.431908213E-40 0.251673204E-41 0.700649232E-43 0.000000000E+00 0.000000000E+00 0.000000000E+00 0.000000000E+00 0.000000000E+00 0.000000000E+00 0.000000000E+00 0.000000000E+00 0.420389539E-44 0.546506401E-43 0.431319667E-41 0.476878737E-35 0.407706128E-29 0.232586467E-23 0.650530713E-18 0.247202198E-15 0.241841815E-13 0.143717785E-11 0.523645537E-10 0.123664701E-08 0.188357525E-07 0.173721205E-06 0.237397060E-06 0.337639712E-07 0.281570389E-08 0.151663154E-09 0.543658694E-11 0.128204630E-12 0.189956540E-14 0.169373436E-16 0.395613248E-19 0.145102126E-24 0.263317999E-30 0.321347513E-36 0.255036321E-42 0.280259693E-43 0.000000000E+00 0.000000000E+00 0.000000000E+00 0.000000000E+00 0.000000000E+00 0.000000000E+00 0.000000000E+00 0.000000000E+00 0.000000000E+00 0.700649232E-43 0.216640743E-41 0.381587585E-40 0.617903959E-39 0.801427395E-38 0.825315638E-37 0.665004549E-36 0.410952940E-35 0.189472198E-34 0.626903535E-34 0.140789280E-33 0.198388434E-33 0.158763358E-33 0.653673066E-34 0.126883781E-34 0.105483246E-35 0.324833596E-37 0.282217307E-39 0.418988241E-42 0.000000000E+00 0.000000000E+00 0.000000000E+00 0.000000000E+00 0.000000000E+00 0.000000000E+00 0.000000000E+00 0.000000000E+00 0.000000000E+00
0.000000000E+00 0.000000000E+00 0.000000000E+00 0.000000000E+00 0.000000000E+00 0.000000000E+00 0.000000000E+00 0.111823617E-41 0.143596659E-38 0.279324903E-36 0.146406673E-34 0.281321168E-33 0.233174659E-32 0.922903978E-32 0.188524432E-31 0.214702838E-31 0.148205064E-31 0.670836626E-32 0.211879477E-32 0.488641706E-33 0.850040947E-34 0.114185049E-34 0.120493435E-35 0.101178704E-36 0.682515029E-38 0.430385001E-39 0.251617152E-40 0.132843094E-41 0.000000000E+00 0.000000000E+00 0.000000000E+00 0.000000000E+00 0.000000000E+00 0.000000000E+00 0.000000000E+00 0.966895940E-43 0.952882956E-43 0.733492305E-37 0.614232356E-31 0.355791152E-25 0.105797531E-19 0.433281175E-17 0.831799060E-15 0.695250267E-13 0.359069892E-11 0.119903726E-09 0.267765388E-08 0.393872988E-07 0.356331981E-06 0.483321116E-06 0.690690953E-07 0.587169424E-08 0.327585487E-09 0.124315627E-10 0.320655015E-12 0.543652978E-14 0.569522124E-16 0.263515910E-18 0.577401703E-21 0.202346424E-26 0.366876011E-32 0.463726376E-38 0.504467447E-43 0.742688186E-43 0.000000000E+00 0.000000000E+00 0.000000000E+00 0.000000000E+00 0.000000000E+00 0.000000000E+00 0.000000000E+00 0.125836602E-41 0.225048533E-40 0.382230781E-39 0.601686872E-38 0.888514983E-37 0.105702925E-35 0.100318592E-34 0.749448362E-34 0.432861285E-33 0.188567606E-32 0.598526348E-32 0.131848912E-31 0.188536613E-31 0.160936065E-31 0.752887381E-32 0.178966517E-32 0.200541770E-33 0.959026392E-35 0.166604545E-36 0.773895103E-39 0.559118087E-42 0.000000000E+00 0.000000000E+00 0.000000000E+00 0.000000000E+00 0.000000000E+00 0.000000000E+00 0.000000000E+00 0.000000000E+00
0.000000000E+00 0.000000000E+00 0.000000000E+00 0.000000000E+00 0.000000000E+00 0.000000000E+00 0.839377780E-42 0.224424675E-38 0.800630465E-36 0.725413635E-34 0.234477364E-32 0.323568662E-31 0.212839027E-30 0.719749643E-30 0.133517651E-29 0.145368534E-29 0.998140089E-30 0.462033744E-30 0.152119172E-30 0.370774751E-31 0.688832490E-32 0.996255799E-33 0.113915378E-33 0.104165696E-34 0.768349212E-36 0.530184413E-37 0.340785697E-38 0.202682409E-39 0.110422319E-40 0.489053164E-42 0.000000000E+00 0.000000000E+00 0.000000000E+00 0.000000000E+00 0.882818033E-43 0.756701171E-43 0.999841869E-39 0.762452130E-33 0.411413351E-27 0.117538016E-21 0.736662690E-19 0.170058127E-16 0.228522035E-14 0.167236965E-12 0.785510806E-11 0.246722226E-09 0.528631672E-08 0.756416014E-07 0.672837757E-06 0.905827108E-06 0.130143505E-06 0.112406289E-07 0.644257536E-09 0.254842935E-10 0.699737360E-12 0.130268848E-13 0.156359662E-15 0.103514695E-17 0.403253214E-20 0.586297084E-23 0.217316909E-28 0.430046314E-34 0.607392819E-40 0.868805048E-43 0.868805048E-43 0.000000000E+00 0.000000000E+00 0.000000000E+00 0.000000000E+00 0.489053164E-42 0.102042554E-40 0.184231512E-39 0.305281278E-38 0.469796969E-37 0.675815667E-36 0.912673071E-35 0.997144078E-34 0.873462098E-33 0.606119270E-32 0.327819484E-31 0.135126955E-30 0.411495151E-30 0.886779867E-30 0.127638252E-29 0.114246973E-29 0.590353481E-30 0.164696480E-30 0.232968551E-31 0.155218868E-32 0.436878904E-34 0.434336831E-36 0.108637485E-38 0.348923318E-42 0.000000000E+00 0.000000000E+00 0.000000000E+00 0.000000000E+00 0.000000000E+00 0.000000000E+00 0.000000000E+00
0.000000000E+00 0.000000000E+00 0.000000000E+00 0.000000000E+00 0.000000000E+00 0.348923318E-42 0.192799331E-38 0.125652115E-35 0.195084790E-33 0.104421147E-31 0.234603188E-30 0.249920048E-29 0.136610890E-28 0.407201083E-28 0.700343299E-28 0.737824725E-28 0.506711085E-28 0.240220505E-28 0.823782303E-29 0.211775802E-29 0.419070977E-30 0.650786763E-31 0.804329144E-32 0.799337536E-33 0.643621556E-34 0.484833341E-35 0.340488846E-36 0.221934806E-37 0.133336912E-38 0.729656110E-40 0.363356692E-41 0.140129846E-42 0.000000000E+00 0.238220739E-43 0.476441478E-43 0.139709457E-40 0.917770228E-35 0.432261510E-29 0.108571449E-23 0.916655261E-21 0.304690014E-18 0.514791685E-16 0.551197754E-14 0.361358458E-12 0.157705168E-10 0.471949868E-09 0.977592229E-08 0.136591126E-06 0.119583217E-05 0.159837850E-05 0.231087540E-06 0.202476880E-07 0.118710142E-08 0.485521415E-10 0.140025350E-11 0.280595419E-13 0.376968519E-15 0.313769665E-17 0.167352887E-19 0.459815788E-22 0.508228969E-25 0.218280015E-30 0.504870752E-36 0.894028420E-42 0.364337601E-43 0.308285662E-43 0.000000000E+00 0.140129846E-42 0.349483837E-41 0.688415897E-40 0.123146950E-38 0.201300378E-37 0.304383124E-36 0.428704598E-35 0.564939945E-34 0.699005144E-33 0.702811468E-32 0.569642799E-31 0.368180841E-30 0.186957073E-29 0.730645309E-29 0.213626075E-28 0.449643133E-28 0.647685546E-28 0.600327169E-28 0.335507589E-28 0.106475827E-28 0.181616397E-29 0.156929131E-30 0.635431030E-32 0.106790000E-33 0.611640637E-36 0.824285796E-39 0.140129846E-42 0.000000000E+00 0.000000000E+00 0.000000000E+00 0.000000000E+00 0.000000000E+00 0.000000000E+00
0.000000000E+00 0.000000000E+00 0.000000000E+00 0.000000000E+00 0.700649232E-43 0.946034810E-39 0.112764411E-35 0.299194927E-33 0.262835747E-31 0.946628140E-30 0.160050556E-28 0.138291243E-27 0.649666389E-27 0.174755108E-26 0.283070352E-26 0.291187261E-26 0.200817120E-26 0.975813140E-27 0.348157338E-27 0.941856599E-28 0.197930228E-28 0.328947894E-29 0.438012376E-30 0.471696936E-31 0.413599708E-32 0.339441075E-33 0.259791340E-34 0.184736732E-35 0.121484393E-36 0.733618142E-38 0.402427696E-39 0.197793278E-40 0.875811540E-42 0.127518160E-42 0.186372696E-42 0.121246318E-36 0.487505513E-31 0.105826723E-25 0.976594260E-23 0.418933942E-20 0.973883679E-18 0.133085327E-15 0.121248929E-13 0.725239964E-12 0.297794012E-10 0.855280291E-09 0.171989960E-07 0.235114854E-06 0.202652859E-05 0.269028033E-05 0.391796476E-06 0.348072362E-07 0.208284656E-08 0.876883913E-10 0.263618207E-11 0.561818760E-13 0.829160976E-15 0.812589229E-17 0.536932532E-19 0.211449508E-21 0.461205112E-24 0.481784135E-27 0.244715534E-32 0.678729001E-38 0.840779079E-43 0.148537637E-42 0.895429719E-42 0.197793278E-40 0.389429251E-39 0.691418319E-38 0.111998455E-36 0.167234716E-35 0.231785015E-34 0.299576136E-33 0.362408912E-32 0.411858279E-31 0.382213352E-30 0.287583207E-29 0.173694671E-28 0.830517687E-28 0.308423068E-27 0.866724327E-27 0.178017807E-26 0.255539665E-26 0.242970969E-26 0.144527262E-26 0.509565145E-27 0.101351305E-27 0.108127259E-28 0.582168091E-30 0.145321356E-31 0.146841182E-33 0.484312201E-36 0.349451607E-39 0.000000000E+00 0.000000000E+00 0.000000000E+00 0.000000000E+00 0.000000000E+00 0.000000000E+00
0.000000000E+00 0.000000000E+00 0.000000000E+00 0.000000000E+00 0.271313803E-39 0.595622876E-36 0.270918410E-33 0.389507841E-31 0.222832671E-29 0.589568563E-28 0.790854724E-27 0.574518268E-26 0.237971294E-25 0.588303127E-25 0.908445809E-25 0.918776251E-25 0.638179289E-25 0.317971373E-25 0.117884600E-25 0.334810865E-26 0.744935691E-27 0.132031393E-27 0.188709853E-28 0.219421537E-29 0.208829675E-30 0.186228662E-31 0.154973979E-32 0.119885122E-33 0.858718138E-35 0.566734470E-36 0.342183072E-37 0.187030465E-38 0.911306430E-40 0.395866816E-41 0.195866773E-38 0.612502444E-33 0.111315513E-27 0.108470852E-24 0.505556531E-22 0.146535256E-19 0.265807976E-17 0.309338444E-15 0.249023875E-13 0.137795070E-11 0.536717476E-10 0.148595181E-08 0.290779845E-07 0.389285447E-06 0.330304965E-05 0.435672473E-05 0.639810423E-06 0.576354680E-07 0.351624219E-08 0.151988061E-09 0.474058379E-11 0.106582454E-12 0.170364753E-14 0.189293500E-16 0.147168485E-18 0.744592455E-21 0.241046981E-23 0.500145325E-26 0.515815836E-29 0.320882752E-34 0.118510614E-39 0.426835512E-41 0.940775737E-40 0.186192209E-38 0.330428952E-37 0.533151421E-36 0.790185899E-35 0.108325776E-33 0.138025674E-32 0.164100745E-31 0.182738320E-30 0.191372267E-29 0.164515193E-28 0.115333147E-27 0.653205718E-27 0.294988777E-26 0.104336107E-25 0.282151079E-25 0.565239423E-25 0.806056101E-25 0.780553399E-25 0.488054776E-25 0.187682320E-25 0.424301934E-26 0.539284025E-27 0.366309588E-28 0.124501600E-29 0.192979174E-31 0.117214190E-33 0.220866364E-36 0.841479728E-40 0.000000000E+00 0.000000000E+00 0.000000000E+00 0.000000000E+00 0.000000000E+00
0.000000000E+00 0.000000000E+00 0.000000000E+00 0.458476832E-40 0.188196245E-36 0.148162568E-33 0.349778071E-31 0.316849518E-29 0.130113059E-27 0.267489309E-26 0.295782873E-25 0.185668090E-24 0.691818836E-24 0.159467029E-23 0.236999454E-23 0.236930448E-23 0.166119828E-23 0.848771637E-24 0.326555652E-24 0.971514437E-25 0.228175891E-25 0.429790565E-26 0.656855404E-27 0.821368917E-28 0.845209553E-29 0.816213906E-30 0.736408596E-31 0.618135027E-32 0.480781506E-33 0.345046880E-34 0.227311938E-35 0.136467323E-36 0.738858858E-38 0.403433828E-39 0.113818510E-34 0.133554261E-29 0.130278212E-26 0.632596139E-24 0.197684529E-21 0.434567219E-19 0.651758311E-17 0.666173837E-15 0.485128295E-13 0.250903747E-11 0.932288274E-10 0.249522158E-08 0.475796256E-07 0.624043992E-06 0.521058109E-05 0.683101189E-05 0.101265925E-05 0.925302430E-07 0.575284931E-08 0.254924831E-09 0.822409588E-11 0.193947899E-12 0.332222881E-14 0.408764568E-16 0.362566756E-18 0.222428019E-20 0.952200472E-23 0.295627442E-25 0.613792248E-28 0.665083419E-31 0.667696880E-36 0.384367761E-39 0.760407325E-38 0.135600726E-36 0.219099781E-35 0.324009377E-34 0.441630427E-33 0.557624471E-32 0.654941606E-31 0.718384800E-30 0.738918984E-29 0.715857146E-28 0.572318394E-27 0.375256395E-26 0.199986501E-25 0.855518111E-25 0.288842826E-24 0.752606091E-24 0.147031761E-23 0.207804954E-23 0.203795510E-23 0.132634704E-23 0.548234318E-24 0.138075027E-24 0.203448676E-25 0.167833836E-26 0.734484139E-28 0.158592770E-29 0.152667902E-31 0.552965285E-34 0.585139751E-37 0.114626214E-40 0.000000000E+00 0.000000000E+00 0.000000000E+00 0.000000000E+00
0.000000000E+00 0.000000000E+00 0.447294470E-41 0.356765572E-37 0.495090957E-34 0.193870816E-31 0.278923876E-29 0.177339726E-27 0.554484052E-26 0.922715009E-25 0.865988132E-24 0.479932088E-23 0.163471654E-22 0.355431000E-22 0.512292393E-22 0.508384534E-22 0.360404957E-22 0.188821620E-22 0.752939729E-23 0.234136697E-23 0.578853609E-24 0.115486254E-24 0.188020082E-25 0.251825066E-26 0.279016717E-27 0.290628907E-28 0.283277211E-29 0.257212576E-30 0.216619981E-31 0.168493230E-32 0.120497860E-33 0.787961615E-35 0.467650964E-36 0.324819146E-36 0.413219354E-31 0.196705442E-28 0.867375753E-26 0.276525349E-23 0.649122312E-21 0.115162011E-18 0.147929292E-16 0.135499839E-14 0.906546973E-13 0.441571085E-11 0.157150126E-09 0.407362721E-08 0.757469749E-07 0.973336796E-06 0.799376812E-05 0.104193814E-04 0.156082717E-05 0.144738593E-06 0.917006115E-08 0.416235324E-09 0.138604362E-10 0.341437517E-12 0.621854278E-14 0.834174656E-16 0.827281063E-18 0.594087740E-20 0.316066525E-22 0.131070213E-24 0.416241128E-27 0.100673954E-29 0.234876922E-32 0.466574767E-37 0.480328568E-36 0.781498333E-35 0.115936195E-33 0.157951194E-32 0.198674341E-31 0.231729880E-30 0.251675654E-29 0.255595098E-28 0.243796201E-27 0.219399956E-26 0.163787245E-25 0.100817921E-24 0.507261622E-24 0.206133121E-23 0.665742279E-23 0.167344945E-22 0.318827380E-22 0.445789778E-22 0.440798592E-22 0.296262740E-22 0.130081728E-22 0.359133384E-23 0.600441084E-24 0.584369115E-25 0.316168614E-26 0.896671454E-28 0.122942321E-29 0.729401445E-32 0.154795057E-34 0.891884434E-38 0.839377780E-42 0.000000000E+00 0.000000000E+00 0.000000000E+00
0.000000000E+00 0.280259693E-42 0.400129146E-38 0.101014877E-34 0.668755120E-32 0.154357774E-29 0.152495819E-27 0.723465492E-26 0.179983780E-24 0.250116594E-23 0.203845728E-22 0.101479786E-21 0.320126420E-21 0.662768974E-21 0.932140159E-21 0.921347229E-21 0.661265519E-21 0.355176406E-21 0.146608524E-21 0.475568993E-22 0.123438477E-22 0.260027862E-23 0.449361648E-24 0.642098634E-25 0.762804691E-26 0.853428381E-27 0.895055840E-28 0.875882771E-29 0.796094991E-30 0.669042190E-31 0.517549812E-32 0.366733758E-33 0.236653674E-34 0.587677797E-35 0.584606537E-30 0.157981361E-27 0.432112212E-25 0.100982171E-22 0.189136241E-20 0.281359747E-18 0.316856861E-16 0.263743635E-14 0.163842532E-12 0.755846948E-11 0.258383592E-09 0.649479359E-08 0.117806856E-06 0.148283482E-05 0.119717779E-04 0.155189337E-04 0.235148832E-05 0.221437745E-06 0.142991965E-07 0.664568400E-09 0.228110517E-10 0.585193189E-12 0.112660422E-13 0.163007547E-15 0.178247558E-17 0.146379141E-19 0.931550066E-22 0.485859185E-24 0.211487446E-26 0.828804467E-29 0.337870020E-31 0.177815385E-35 0.242605733E-34 0.363073356E-33 0.497129565E-32 0.626259427E-31 0.729249236E-30 0.788361819E-29 0.794679982E-28 0.750251210E-27 0.666396105E-26 0.559420156E-25 0.391489653E-24 0.227036673E-23 0.108186230E-22 0.418706195E-22 0.129615905E-21 0.314694311E-21 0.584781453E-21 0.807789730E-21 0.802482678E-21 0.553445071E-21 0.255657526E-21 0.763605239E-22 0.142382357E-22 0.159799889E-23 0.103629896E-24 0.369521438E-26 0.678786486E-28 0.586165101E-30 0.210620339E-32 0.253735557E-35 0.753139070E-39 0.000000000E+00 0.000000000E+00 0.000000000E+00
0.000000000E+00 0.254750456E-39 0.123730655E-35 0.143089034E-32 0.540168853E-30 0.837981688E-28 0.605255802E-26 0.224756333E-24 0.460003214E-23 0.546931086E-22 0.394233881E-21 0.178803289E-20 0.528045405E-20 0.104906810E-19 0.144695926E-19 0.142838954E-19 0.103890484E-19 0.571915059E-20 0.244085307E-20 0.824384183E-21 0.224102862E-21 0.496997296E-22 0.908596659E-23 0.137993042E-23 0.175055791E-24 0.209480180E-25 0.235395247E-26 0.247247155E-27 0.241606422E-28 0.218620113E-29 0.182320749E-30 0.139462780E-31 0.973406484E-33 0.216183972E-32 0.470523343E-29 0.923021185E-27 0.179379870E-24 0.326098185E-22 0.505495808E-20 0.646768644E-18 0.649071885E-16 0.495899462E-14 0.288195357E-12 0.126440837E-10 0.416029572E-09 0.101481890E-07 0.179576645E-06 0.221338155E-05 0.175565874E-04 0.226392422E-04 0.347320770E-05 0.332364010E-06 0.218825562E-07 0.104120490E-08 0.368065925E-10 0.981165019E-12 0.198803749E-13 0.307911644E-15 0.367535578E-17 0.339566366E-19 0.252016321E-21 0.159398122E-23 0.896309538E-26 0.495860336E-28 0.277179828E-30 0.204983325E-33 0.996056332E-33 0.137843463E-31 0.174876461E-30 0.204401390E-29 0.221126760E-28 0.222414286E-27 0.208936109E-26 0.184146405E-25 0.152955421E-24 0.120262782E-23 0.791909774E-23 0.434135210E-22 0.196493602E-21 0.726038749E-21 0.215826265E-20 0.506711254E-20 0.918602892E-20 0.125228392E-19 0.124629687E-19 0.877393949E-20 0.423029293E-20 0.135213475E-20 0.277226422E-21 0.352320647E-22 0.267332931E-23 0.115942486E-24 0.272129106E-26 0.321216406E-28 0.171609609E-30 0.361765251E-33 0.233834832E-36 0.320799257E-40 0.000000000E+00 0.000000000E+00