<?xml version="1.0"?>
<VTKFile type="StructuredGrid">
<StructuredGrid WholeExtent="     0   100     0   100     0     0">
<Piece Extent="     0   100     0   100     0     0">
<Points>
<DataArray type="Float32" NumberOfComponents="3"/>
0.000000000E+00 0.000000000E+00 0.000000000E+00 0.199999996E-01 0.000000000E+00 0.000000000E+00 0.399999991E-01 0.000000000E+00 0.000000000E+00 0.599999987E-01 0.000000000E+00 0.000000000E+00 0.799999982E-01 0.000000000E+00 0.000000000E+00 0.100000001E+00 0.000000000E+00 0.000000000E+00 0.119999997E+00 0.000000000E+00 0.000000000E+00 0.140000001E+00 0.000000000E+00 0.000000000E+00 0.159999996E+00 0.000000000E+00 0.000000000E+00 0.180000007E+00 0.000000000E+00 0.000000000E+00 0.200000003E+00 0.000000000E+00 0.000000000E+00 0.219999999E+00 0.000000000E+00 0.000000000E+00 0.239999995E+00 0.000000000E+00 0.000000000E+00 0.259999990E+00 0.000000000E+00 0.000000000E+00 0.280000001E+00 0.000000000E+00 0.000000000E+00 0.300000012E+00 0.000000000E+00 0.000000000E+00 0.319999993E+00 0.000000000E+00 0.000000000E+00 0.340000004E+00 0.000000000E+00 0.000000000E+00 0.360000014E+00 0.000000000E+00 0.000000000E+00 0.379999995E+00 0.000000000E+00 0.000000000E+00 0.400000006E+00 0.000000000E+00 0.000000000E+00 0.419999987E+00 0.000000000E+00 0.000000000E+00 0.439999998E+00 0.000000000E+00 0.000000000E+00 0.460000008E+00 0.000000000E+00 0.000000000E+00 0.479999989E+00 0.000000000E+00 0.000000000E+00 0.500000000E+00 0.000000000E+00 0.000000000E+00 0.519999981E+00 0.000000000E+00 0.000000000E+00 0.540000021E+00 0.000000000E+00 0.000000000E+00 0.560000002E+00 0.000000000E+00 0.000000000E+00 0.579999983E+00 0.000000000E+00 0.000000000E+00 0.600000024E+00 0.000000000E+00 0.000000000E+00 0.620000005E+00 0.000000000E+00 0.000000000E+00 0.639999986E+00 0.000000000E+00 0.000000000E+00 0.660000026E+00 0.000000000E+00 0.000000000E+00 0.680000007E+00 0.000000000E+00 0.000000000E+00 0.699999988E+00 0.000000000E+00 0.000000000E+00 0.720000029E+00 0.000000000E+00 0.000000000E+00 0.740000010E+00 0.000000000E+00 0.000000000E+00 0.759999990E+00 0.000000000E+00 0.000000000E+00 0.779999971E+00 0.000000000E+00 0.000000000E+00 0.800000012E+00 0.000000000E+00 0.000000000E+00 0.819999993E+00 0.000000000E+00 0.000000000E+00 0.839999974E+00 0.000000000E+00 0.000000000E+00 0.860000014E+00 0.000000000E+00 0.000000000E+00 0.879999995E+00 0.000000000E+00 0.000000000E+00 0.899999976E+00 0.000000000E+00 0.000000000E+00 0.920000017E+00 0.000000000E+00 0.000000000E+00 0.939999998E+00 0.000000000E+00 0.000000000E+00 0.959999979E+00 0.000000000E+00 0.000000000E+00 0.980000019E+00 0.000000000E+00 0.000000000E+00 0.100000000E+01 0.000000000E+00 0.000000000E+00 0.101999998E+01 0.000000000E+00 0.000000000E+00 0.103999996E+01 0.000000000E+00 0.000000000E+00 0.105999994E+01 0.000000000E+00 0.000000000E+00 0.108000004E+01 0.000000000E+00 0.000000000E+00 0.110000002E+01 0.000000000E+00 0.000000000E+00 0.112000000E+01 0.000000000E+00 0.000000000E+00 0.113999999E+01 0.000000000E+00 0.000000000E+00 0.115999997E+01 0.000000000E+00 0.000000000E+00 0.117999995E+01 0.000000000E+00 0.000000000E+00 0.120000005E+01 0.000000000E+00 0.000000000E+00 0.122000003E+01 0.000000000E+00 0.000000000E+00 0.124000001E+01 0.000000000E+00 0.000000000E+00 0.125999999E+01 0.000000000E+00 0.000000000E+00 0.127999997E+01 0.000000000E+00 0.000000000E+00 0.129999995E+01 0.000000000E+00 0.000000000E+00 0.132000005E+01 0.000000000E+00 0.000000000E+00 0.134000003E+01 0.000000000E+00 0.000000000E+00 0.136000001E+01 0.000000000E+00 0.000000000E+00 0.138000000E+01 0.000000000E+00 0.000000000E+00 0.139999998E+01 0.000000000E+00 0.000000000E+00 0.141999996E+01 0.000000000E+00 0.000000000E+00 0.144000006E+01 0.000000000E+00 0.000000000E+00 0.146000004E+01 0.000000000E+00 0.000000000E+00 0.148000002E+01 0.000000000E+00 0.000000000E+00 0.150000000E+01 0.000000000E+00 0.000000000E+00 0.151999998E+01 0.000000000E+00 0.000000000E+00 0.153999996E+01 0.000000000E+00 0.000000000E+00 0.155999994E+01 0.000000000E+00 0.000000000E+00 0.158000004E+01 0.000000000E+00 0.000000000E+00 0.160000002E+01 0.000000000E+00 0.000000000E+00 0.162000000E+01 0.000000000E+00 0.000000000E+00 0.163999999E+01 0.000000000E+00 0.000000000E+00 0.165999997E+01 0.000000000E+00 0.000000000E+00 0.167999995E+01 0.000000000E+00 0.000000000E+00 0.170000005E+01 0.000000000E+00 0.000000000E+00 0.172000003E+01 0.000000000E+00 0.000000000E+00 0.174000001E+01 0.000000000E+00 0.000000000E+00 0.175999999E+01 0.000000000E+00 0.000000000E+00 0.177999997E+01 0.000000000E+00 0.000000000E+00 0.179999995E+01 0.000000000E+00 0.000000000E+00 0.182000005E+01 0.000000000E+00 0.000000000E+00 0.184000003E+01 0.000000000E+00 0.000000000E+00 0.186000001E+01 0.000000000E+00 0.000000000E+00 0.188000000E+01 0.000000000E+00 0.000000000E+00 0.189999998E+01 0.000000000E+00 0.000000000E+00 0.191999996E+01 0.000000000E+00 0.000000000E+00 0.194000006E+01 0.000000000E+00 0.000000000E+00 0.196000004E+01 0.000000000E+00 0.000000000E+00 0.198000002E+01 0.000000000E+00 0.000000000E+00 0.200000000E+01 0.000000000E+00 0.000000000E+00
0.000000000E+00 0.999999978E-02 0.000000000E+00 0.199999996E-01 0.999999978E-02 0.000000000E+00 0.399999991E-01 0.999999978E-02 0.000000000E+00 0.599999987E-01 0.999999978E-02 0.000000000E+00 0.799999982E-01 0.999999978E-02 0.000000000E+00 0.100000001E+00 0.999999978E-02 0.000000000E+00 0.119999997E+00 0.999999978E-02 0.000000000E+00 0.140000001E+00 0.999999978E-02 0.000000000E+00 0.159999996E+00 0.999999978E-02 0.000000000E+00 0.180000007E+00 0.999999978E-02 0.000000000E+00 0.200000003E+00 0.999999978E-02 0.000000000E+00 0.219999999E+00 0.999999978E-02 0.000000000E+00 0.239999995E+00 0.999999978E-02 0.000000000E+00 0.259999990E+00 0.999999978E-02 0.000000000E+00 0.280000001E+00 0.999999978E-02 0.000000000E+00 0.300000012E+00 0.999999978E-02 0.000000000E+00 0.319999993E+00 0.999999978E-02 0.000000000E+00 0.340000004E+00 0.999999978E-02 0.000000000E+00 0.360000014E+00 0.999999978E-02 0.000000000E+00 0.379999995E+00 0.999999978E-02 0.000000000E+00 0.400000006E+00 0.999999978E-02 0.000000000E+00 0.419999987E+00 0.999999978E-02 0.000000000E+00 0.439999998E+00 0.999999978E-02 0.000000000E+00 0.460000008E+00 0.999999978E-02 0.000000000E+00 0.479999989E+00 0.999999978E-02 0.000000000E+00 0.500000000E+00 0.999999978E-02 0.000000000E+00 0.519999981E+00 0.999999978E-02 0.000000000E+00 0.540000021E+00 0.999999978E-02 0.000000000E+00 0.560000002E+00 0.999999978E-02 0.000000000E+00 0.579999983E+00 0.999999978E-02 0.000000000E+00 0.600000024E+00 0.999999978E-02 0.000000000E+00 0.620000005E+00 0.999999978E-02 0.000000000E+00 0.639999986E+00 0.999999978E-02 0.000000000E+00 0.660000026E+00 0.999999978E-02 0.000000000E+00 0.680000007E+00 0.999999978E-02 0.000000000E+00 0.699999988E+00 0.999999978E-02 0.000000000E+00 0.720000029E+00 0.999999978E-02 0.000000000E+00 0.740000010E+00 0.999999978E-02 0.000000000E+00 0.759999990E+00 0.999999978E-02 0.000000000E+00 0.779999971E+00 0.999999978E-02 0.000000000E+00 0.800000012E+00 0.999999978E-02 0.000000000E+00 0.819999993E+00 0.999999978E-02 0.000000000E+00 0.839999974E+00 0.999999978E-02 0.000000000E+00 0.860000014E+00 0.999999978E-02 0.000000000E+00 0.879999995E+00 0.999999978E-02 0.000000000E+00 0.899999976E+00 0.999999978E-02 0.000000000E+00 0.920000017E+00 0.999999978E-02 0.000000000E+00 0.939999998E+00 0.999999978E-02 0.000000000E+00 0.959999979E+00 0.999999978E-02 0.000000000E+00 0.980000019E+00 0.999999978E-02 0.000000000E+00 0.100000000E+01 0.999999978E-02 0.000000000E+00 0.101999998E+01 0.999999978E-02 0.000000000E+00 0.103999996E+01 0.999999978E-02 0.000000000E+00 0.105999994E+01 0.999999978E-02 0.000000000E+00 0.108000004E+01 0.999999978E-02 0.000000000E+00 0.110000002E+01 0.999999978E-02 0.000000000E+00 0.112000000E+01 0.999999978E-02 0.000000000E+00 0.113999999E+01 0.999999978E-02 0.000000000E+00 0.115999997E+01 0.999999978E-02 0.000000000E+00 0.117999995E+01 0.999999978E-02 0.000000000E+00 0.120000005E+01 0.999999978E-02 0.000000000E+00 0.122000003E+01 0.999999978E-02 0.000000000E+00 0.124000001E+01 0.999999978E-02 0.000000000E+00 0.125999999E+01 0.999999978E-02 0.000000000E+00 0.127999997E+01 0.999999978E-02 0.000000000E+00 0.129999995E+01 0.999999978E-02 0.000000000E+00 0.132000005E+01 0.999999978E-02 0.000000000E+00 0.134000003E+01 0.999999978E-02 0.000000000E+00 0.136000001E+01 0.999999978E-02 0.000000000E+00 0.138000000E+01 0.999999978E-02 0.000000000E+00 0.139999998E+01 0.999999978E-02 0.000000000E+00 0.141999996E+01 0.999999978E-02 0.000000000E+00 0.144000006E+01 0.999999978E-02 0.000000000E+00 0.146000004E+01 0.999999978E-02 0.000000000E+00 0.148000002E+01 0.999999978E-02 0.000000000E+00 0.150000000E+01 0.999999978E-02 0.000000000E+00 0.151999998E+01 0.999999978E-02 0.000000000E+00 0.153999996E+01 0.999999978E-02 0.000000000E+00 0.155999994E+01 0.999999978E-02 0.000000000E+00 0.158000004E+01 0.999999978E-02 0.000000000E+00 0.160000002E+01 0.999999978E-02 0.000000000E+00 0.162000000E+01 0.999999978E-02 0.000000000E+00 0.163999999E+01 0.999999978E-02 0.000000000E+00 0.165999997E+01 0.999999978E-02 0.000000000E+00 0.167999995E+01 0.999999978E-02 0.000000000E+00 0.170000005E+01 0.999999978E-02 0.000000000E+00 0.172000003E+01 0.999999978E-02 0.000000000E+00 0.174000001E+01 0.999999978E-02 0.000000000E+00 0.175999999E+01 0.999999978E-02 0.000000000E+00 0.177999997E+01 0.999999978E-02 0.000000000E+00 0.179999995E+01 0.999999978E-02 0.000000000E+00 0.182000005E+01 0.999999978E-02 0.000000000E+00 0.184000003E+01 0.999999978E-02 0.000000000E+00 0.186000001E+01 0.999999978E-02 0.000000000E+00 0.188000000E+01 0.999999978E-02 0.000000000E+00 0.189999998E+01 0.999999978E-02 0.000000000E+00 0.191999996E+01 0.999999978E-02 0.000000000E+00 0.194000006E+01 0.999999978E-02 0.000000000E+00 0.196000004E+01 0.999999978E-02 0.000000000E+00 0.198000002E+01 0.999999978E-02 0.000000000E+00 0.200000000E+01 0.999999978E-02 0.000000000E+00
[...]
<CellData Scalars="Temperature, U, V">
<DataArray type="Float32" Name="Temp, K"/>
0.310583250E-02 0.622138800E-02 0.932214316E-02 0.123734502E-01 0.153340595E-01 0.181591585E-01 0.208029188E-01 0.232206080E-01 0.253703464E-01 0.272144936E-01 0.287208501E-01 0.298635345E-01 0.306237638E-01 0.309904441E-01 0.309606101E-01 0.305397883E-01 0.297421813E-01 0.285907239E-01 0.271169581E-01 0.253606848E-01 0.233693197E-01 0.211969558E-01 0.189029817E-01 0.165503044E-01 0.142031014E-01 0.120759513E-01 0.101640066E-01 0.846066605E-02 0.695773587E-02 0.564557780E-02 0.451326510E-02 0.354873971E-02 0.273898104E-02 0.207019062E-02 0.152799173E-02 0.109765772E-02 0.764357857E-03 0.513432431E-03 0.330687908E-03 0.202706404E-03 0.117156895E-03 0.630862487E-04 0.311615295E-04 0.138293726E-04 0.535796653E-05 0.173782507E-05 0.441621467E-06 0.779730698E-07 0.715250703E-08 0.346547235E-08 0.390275012E-07 0.228226469E-06 0.926394534E-06 0.294316396E-05 0.781937979E-05 0.181162777E-04 0.376700300E-04 0.717767907E-04 0.127292384E-03 0.212647472E-03 0.337789970E-03 0.514071842E-03 0.754097709E-03 0.107154914E-02 0.148099835E-02 0.199771370E-02 0.263747596E-02 0.341638085E-02 0.435066689E-02 0.545652490E-02 0.674992986E-02 0.824645068E-02 0.996107422E-02 0.119080050E-01 0.141004641E-01 0.165504534E-01 0.190469492E-01 0.215251800E-01 0.239190012E-01 0.261633061E-01 0.281961523E-01 0.299605131E-01 0.314057432E-01 0.324887335E-01 0.331747979E-01 0.334384367E-01 0.332637504E-01 0.326449908E-01 0.315867551E-01 0.301043168E-01 0.282235462E-01 0.259811040E-01 0.234243348E-01 0.206108801E-01 0.176082384E-01 0.144931069E-01 0.113503197E-01 0.827118568E-02 0.535141537E-02 0.125351690E-06
0.716126896E-02 0.141488630E-01 0.209641214E-01 0.275771227E-01 0.339375772E-01 0.399832092E-01 0.456461385E-01 0.508575402E-01 0.555511080E-01 0.596654788E-01 0.631460473E-01 0.659461543E-01 0.680281818E-01 0.693642125E-01 0.699368641E-01 0.697399527E-01 0.687793344E-01 0.670737326E-01 0.646555722E-01 0.615719259E-01 0.578851663E-01 0.536734499E-01 0.490307249E-01 0.440658592E-01 0.389009342E-01 0.339933634E-01 0.293773040E-01 0.250826683E-01 0.211340543E-01 0.175498482E-01 0.143415574E-01 0.115133328E-01 0.906177051E-02 0.697599445E-02 0.523801288E-02 0.382338720E-02 0.270216959E-02 0.184013846E-02 0.120026723E-02 0.744375749E-03 0.434880465E-03 0.236523876E-03 0.117928153E-03 0.528020646E-04 0.206335062E-04 0.674955118E-05 0.173019566E-05 0.308295256E-06 0.285597306E-07 0.139809959E-07 0.155901603E-06 0.903361524E-06 0.363570052E-05 0.114567665E-04 0.301941564E-04 0.693856782E-04 0.143056066E-03 0.270138524E-03 0.474476343E-03 0.784411735E-03 0.123202067E-02 0.185207918E-02 0.268085371E-02 0.375480205E-02 0.510925939E-02 0.677717244E-02 0.878794398E-02 0.111663863E-01 0.139319003E-01 0.170977712E-01 0.206707586E-01 0.246508364E-01 0.290312283E-01 0.337986238E-01 0.389336571E-01 0.444115996E-01 0.497708172E-01 0.548801087E-01 0.596170276E-01 0.638706088E-01 0.675431341E-01 0.705510601E-01 0.728254914E-01 0.743122548E-01 0.749718174E-01 0.747793242E-01 0.737242624E-01 0.718108937E-01 0.690582991E-01 0.655011088E-01 0.611897260E-01 0.561915375E-01 0.505917631E-01 0.444941260E-01 0.380216278E-01 0.313171968E-01 0.245436709E-01 0.178825613E-01 0.115319761E-01 0.239181077E-06
0.147638014E-01 0.287908185E-01 0.422014855E-01 0.550251976E-01 0.672330260E-01 0.787611455E-01 0.895273983E-01 0.994423255E-01 0.108416647E+00 0.116365902E+00 0.123213351E+00 0.128891453E+00 0.133342952E+00 0.136521429E+00 0.138391778E+00 0.138931155E+00 0.138129815E+00 0.135992736E+00 0.132541582E+00 0.127817214E+00 0.121882483E+00 0.114825457E+00 0.106762566E+00 0.978412405E-01 0.882416219E-01 0.786833167E-01 0.693051144E-01 0.602408648E-01 0.516147166E-01 0.435368642E-01 0.360997133E-01 0.293747336E-01 0.234102234E-01 0.182299651E-01 0.138329817E-01 0.101945018E-01 0.726803392E-02 0.498863868E-02 0.327720563E-02 0.204555155E-02 0.120203220E-02 0.657248020E-03 0.329315895E-03 0.148143168E-03 0.581575950E-04 0.191144100E-04 0.492467007E-05 0.882451559E-06 0.822736723E-07 0.406145766E-07 0.449890933E-06 0.259181911E-05 0.103783204E-04 0.325538167E-04 0.854226892E-04 0.195458357E-03 0.401210767E-03 0.754078384E-03 0.131774938E-02 0.216633826E-02 0.338140922E-02 0.504817627E-02 0.725120073E-02 0.100699039E-01 0.135741951E-01 0.178204142E-01 0.228478983E-01 0.286761522E-01 0.353029706E-01 0.427032970E-01 0.508292057E-01 0.596106015E-01 0.689569712E-01 0.787598789E-01 0.888962895E-01 0.992324874E-01 0.109022416E+00 0.118059427E+00 0.126164243E+00 0.133185223E+00 0.138997212E+00 0.143499807E+00 0.146615237E+00 0.148286432E+00 0.148475260E+00 0.147161841E+00 0.144343287E+00 0.140034616E+00 0.134269267E+00 0.127101287E+00 0.118606776E+00 0.108887754E+00 0.980757773E-01 0.863353685E-01 0.738683939E-01 0.609185435E-01 0.477748513E-01 0.347733982E-01 0.222973675E-01 0.414475153E-06
0.254686624E-01 0.489689559E-01 0.709438547E-01 0.916096717E-01 0.111041136E+00 0.129228950E+00 0.146117911E+00 0.161631063E+00 0.175684616E+00 0.188196465E+00 0.199090719E+00 0.208299428E+00 0.215763122E+00 0.221430406E+00 0.225257695E+00 0.227209181E+00 0.227257267E+00 0.225383982E+00 0.221583471E+00 0.215865642E+00 0.208260804E+00 0.198826075E+00 0.187652543E+00 0.174873486E+00 0.160672754E+00 0.145920634E+00 0.130866125E+00 0.115773015E+00 0.100910135E+00 0.865408182E-01 0.729117021E-01 0.602417253E-01 0.487120189E-01 0.384575650E-01 0.295611452E-01 0.220503602E-01 0.158979688E-01 0.110259065E-01 0.731280027E-02 0.460461155E-02 0.272758328E-02 0.150237198E-02 0.757867529E-03 0.343075808E-03 0.135486975E-03 0.447878301E-04 0.116062201E-04 0.209226459E-05 0.196330419E-06 0.976640635E-07 0.107477194E-05 0.615471026E-05 0.245066767E-04 0.764507786E-04 0.199508097E-03 0.453899498E-03 0.926068809E-03 0.172920094E-02 0.300032529E-02 0.489418302E-02 0.757448701E-02 0.112034855E-01 0.159308184E-01 0.218826551E-01 0.291519780E-01 0.377907120E-01 0.478042439E-01 0.591485612E-01 0.717302710E-01 0.854091644E-01 0.100003384E+00 0.115296505E+00 0.131046265E+00 0.146994174E+00 0.162875488E+00 0.178428844E+00 0.192722231E+00 0.205521807E+00 0.216641009E+00 0.225934371E+00 0.233290985E+00 0.238628387E+00 0.241886899E+00 0.243025422E+00 0.242017969E+00 0.238852635E+00 0.233529970E+00 0.226065159E+00 0.216489807E+00 0.204856828E+00 0.191244453E+00 0.175764635E+00 0.158571497E+00 0.139870420E+00 0.119929291E+00 0.990911275E-01 0.777859092E-01 0.565407686E-01 0.359880663E-01 0.598593147E-06
0.390805453E-01 0.740125552E-01 0.105895877E+00 0.135332674E+00 0.162623465E+00 0.187893450E+00 0.211171657E+00 0.232439131E+00 0.251656771E+00 0.268780440E+00 0.283768117E+00 0.296581775E+00 0.307187378E+00 0.315552950E+00 0.321646690E+00 0.325435668E+00 0.326884717E+00 0.325956970E+00 0.322615683E+00 0.316827714E+00 0.308568984E+00 0.297832400E+00 0.284638107E+00 0.269046485E+00 0.251173913E+00 0.231840447E+00 0.211355373E+00 0.190081075E+00 0.168422729E+00 0.146813571E+00 0.125696450E+00 0.105502583E+00 0.866286308E-01 0.694144964E-01 0.541232675E-01 0.409257039E-01 0.298910178E-01 0.209853370E-01 0.140786674E-01 0.896018837E-02 0.536071556E-02 0.298009277E-02 0.151621958E-02 0.691856898E-03 0.275273633E-03 0.916442586E-04 0.239120291E-04 0.434010235E-05 0.410097073E-06 0.205484056E-06 0.224578207E-05 0.127755375E-04 0.505375865E-04 0.156614245E-03 0.405902567E-03 0.916785153E-03 0.185602705E-02 0.343690813E-02 0.591005385E-02 0.954778679E-02 0.146238357E-01 0.213908311E-01 0.300580785E-01 0.407719426E-01 0.536007173E-01 0.685251206E-01 0.854354501E-01 0.104134530E+00 0.124347180E+00 0.145733580E+00 0.167906910E+00 0.190452039E+00 0.212945148E+00 0.234972000E+00 0.256143808E+00 0.276110411E+00 0.293950319E+00 0.309474945E+00 0.322552443E+00 0.333094120E+00 0.341042310E+00 0.346359670E+00 0.349021524E+00 0.349009544E+00 0.346308202E+00 0.340903491E+00 0.332782090E+00 0.321935207E+00 0.308362544E+00 0.292080581E+00 0.273130238E+00 0.251591265E+00 0.227597654E+00 0.201355085E+00 0.173163161E+00 0.143441111E+00 0.112755373E+00 0.818463340E-01 0.516549349E-01 0.769787277E-06
0.552912541E-01 0.103048399E+00 0.145516545E+00 0.183953419E+00 0.219038844E+00 0.251125842E+00 0.280391037E+00 0.306922168E+00 0.330766410E+00 0.351955235E+00 0.370515674E+00 0.386472583E+00 0.399847835E+00 0.410656720E+00 0.418904483E+00 0.424582601E+00 0.427666754E+00 0.428115398E+00 0.425870210E+00 0.420858502E+00 0.412998021E+00 0.402204365E+00 0.388401955E+00 0.371538877E+00 0.351607233E+00 0.329185128E+00 0.304550558E+00 0.278078198E+00 0.250237018E+00 0.221580312E+00 0.192726716E+00 0.164332584E+00 0.137056783E+00 0.111520760E+00 0.882670209E-01 0.677206218E-01 0.501581244E-01 0.356884189E-01 0.242490619E-01 0.156194903E-01 0.945091993E-02 0.530966697E-02 0.272821519E-02 0.125638524E-02 0.504197727E-03 0.169219580E-03 0.444939178E-04 0.813606221E-05 0.774445425E-06 0.390730946E-06 0.423988558E-05 0.239479068E-04 0.940488317E-04 0.289271527E-03 0.743809971E-03 0.166593923E-02 0.334255095E-02 0.613040477E-02 0.104339588E-01 0.166723821E-01 0.252402760E-01 0.364674814E-01 0.505831167E-01 0.676882043E-01 0.877396762E-01 0.110546991E+00 0.135781437E+00 0.162995771E+00 0.191652507E+00 0.221156418E+00 0.250889391E+00 0.280242741E+00 0.308645695E+00 0.335587621E+00 0.360633105E+00 0.383430004E+00 0.403267264E+00 0.420065463E+00 0.433795363E+00 0.444458306E+00 0.452070385E+00 0.456649959E+00 0.458208680E+00 0.456745386E+00 0.452242047E+00 0.444663912E+00 0.433958948E+00 0.420063943E+00 0.402910471E+00 0.382436752E+00 0.358599216E+00 0.331393778E+00 0.300879657E+00 0.267207623E+00 0.230656922E+00 0.191680759E+00 0.150957540E+00 0.109446742E+00 0.684492216E-01 0.916920897E-06
0.737725198E-01 0.135196388E+00 0.188323259E+00 0.235401109E+00 0.277661741E+00 0.315781474E+00 0.350144714E+00 0.380990267E+00 0.408489406E+00 0.432783663E+00 0.454001307E+00 0.472260237E+00 0.487666219E+00 0.500307798E+00 0.510250807E+00 0.517532706E+00 0.522159338E+00 0.524101734E+00 0.523295403E+00 0.519641042E+00 0.513007760E+00 0.503239214E+00 0.490162462E+00 0.473601937E+00 0.453399867E+00 0.429768950E+00 0.402863711E+00 0.372965068E+00 0.340495527E+00 0.306024700E+00 0.270262063E+00 0.234034255E+00 0.198246196E+00 0.163827464E+00 0.131667420E+00 0.102546275E+00 0.770694315E-01 0.556149781E-01 0.383027084E-01 0.249913968E-01 0.153068621E-01 0.869872421E-02 0.451781787E-02 0.210149260E-02 0.851278368E-03 0.288221170E-03 0.764114593E-04 0.140825859E-04 0.135068842E-05 0.685961197E-06 0.738918925E-05 0.414257956E-04 0.161435746E-03 0.492520689E-03 0.125556567E-02 0.278642494E-02 0.553611200E-02 0.100477114E-01 0.169115812E-01 0.267052948E-01 0.399278030E-01 0.569380149E-01 0.779066831E-01 0.102787882E+00 0.131313160E+00 0.163007423E+00 0.197224319E+00 0.233193979E+00 0.270078957E+00 0.307029188E+00 0.343232989E+00 0.377956927E+00 0.410574824E+00 0.440583378E+00 0.467604995E+00 0.491382152E+00 0.511553705E+00 0.528186023E+00 0.541373730E+00 0.551218510E+00 0.557812393E+00 0.561225355E+00 0.561497033E+00 0.558630347E+00 0.552588582E+00 0.543295681E+00 0.530636430E+00 0.514463365E+00 0.494604945E+00 0.470880032E+00 0.443112850E+00 0.411161304E+00 0.374949545E+00 0.334508777E+00 0.290033072E+00 0.241949707E+00 0.191005349E+00 0.138365686E+00 0.857317299E-01 0.103688546E-05
0.942176655E-01 0.169654042E+00 0.233016685E+00 0.287932128E+00 0.336362332E+00 0.379393578E+00 0.417667478E+00 0.451609880E+00 0.481546819E+00 0.507758617E+00 0.530501842E+00 0.550012827E+00 0.566504776E+00 0.580160618E+00 0.591125607E+00 0.599500954E+00 0.605338454E+00 0.608636618E+00 0.609339058E+00 0.607334137E+00 0.602456748E+00 0.594492674E+00 0.583184898E+00 0.568244696E+00 0.549367726E+00 0.526362062E+00 0.499195814E+00 0.467968255E+00 0.432945251E+00 0.394589156E+00 0.353575647E+00 0.310790867E+00 0.267304212E+00 0.224313885E+00 0.183066711E+00 0.144758776E+00 0.110427395E+00 0.808501467E-01 0.564668253E-01 0.373398624E-01 0.231633428E-01 0.133228768E-01 0.699813059E-02 0.328983506E-02 0.134586531E-02 0.459885399E-03 0.122974714E-03 0.228482604E-04 0.220835182E-05 0.112858982E-05 0.120680852E-04 0.671426751E-04 0.259564462E-03 0.785191718E-03 0.198358181E-02 0.435959594E-02 0.857244153E-02 0.153876785E-01 0.255978517E-01 0.399251655E-01 0.589235835E-01 0.828971565E-01 0.111847714E+00 0.145458698E+00 0.183116093E+00 0.223960549E+00 0.266962469E+00 0.311006844E+00 0.354978561E+00 0.397835821E+00 0.438667625E+00 0.476729125E+00 0.511457145E+00 0.542466462E+00 0.569532454E+00 0.592564940E+00 0.611612082E+00 0.626892686E+00 0.638624251E+00 0.647002459E+00 0.652186632E+00 0.654288411E+00 0.653364062E+00 0.649408638E+00 0.642352521E+00 0.632061899E+00 0.618338287E+00 0.600926220E+00 0.579521060E+00 0.553786099E+00 0.523369849E+00 0.487939864E+00 0.447224110E+00 0.401065499E+00 0.349497765E+00 0.292848319E+00 0.231869087E+00 0.167899251E+00 0.103065908E+00 0.113104988E-05
0.116354808E+00 0.205720901E+00 0.278509527E+00 0.340153039E+00 0.393511921E+00 0.440150976E+00 0.481003433E+00 0.516706705E+00 0.547764778E+00 0.574619770E+00 0.597678721E+00 0.617317259E+00 0.633874357E+00 0.647644043E+00 0.658865273E+00 0.667715251E+00 0.674302578E+00 0.678663611E+00 0.680759728E+00 0.680477142E+00 0.677628458E+00 0.671955287E+00 0.663133323E+00 0.650780201E+00 0.634465754E+00 0.613618970E+00 0.587999821E+00 0.557476521E+00 0.522079051E+00 0.482054114E+00 0.437913924E+00 0.390466332E+00 0.340816766E+00 0.290332317E+00 0.240562916E+00 0.193122506E+00 0.149540260E+00 0.111101754E+00 0.787055120E-01 0.527623184E-01 0.331606381E-01 0.193104930E-01 0.102620907E-01 0.487710861E-02 0.201558811E-02 0.695265713E-03 0.187555110E-03 0.351334966E-04 0.342196927E-05 0.175928074E-05 0.186753259E-04 0.103108316E-03 0.395364390E-03 0.118561008E-02 0.296728802E-02 0.645670667E-02 0.125610922E-01 0.222923942E-01 0.366402790E-01 0.564288534E-01 0.821854249E-01 0.114046238E+00 0.151714787E+00 0.194477946E+00 0.241273478E+00 0.290794760E+00 0.341615319E+00 0.392311603E+00 0.441571295E+00 0.488272011E+00 0.531529784E+00 0.570713460E+00 0.605433702E+00 0.635511339E+00 0.660935998E+00 0.681820035E+00 0.698612452E+00 0.711671948E+00 0.721325636E+00 0.727851152E+00 0.731465161E+00 0.732312202E+00 0.730457485E+00 0.725880265E+00 0.718469441E+00 0.708022714E+00 0.694244802E+00 0.676754713E+00 0.655092359E+00 0.628735721E+00 0.597120225E+00 0.559675455E+00 0.515874624E+00 0.465301991E+00 0.407750815E+00 0.343362331E+00 0.272813320E+00 0.197562546E+00 0.120172635E+00 0.120268146E-05
0.139947653E+00 0.242796525E+00 0.323914826E+00 0.390987992E+00 0.447919279E+00 0.496795088E+00 0.538856924E+00 0.574967802E+00 0.605826080E+00 0.632054150E+00 0.654228151E+00 0.672879875E+00 0.688489556E+00 0.701474249E+00 0.712177515E+00 0.720860422E+00 0.727695644E+00 0.732762456E+00 0.736045003E+00 0.737432301E+00 0.736720085E+00 0.733614266E+00 0.727735162E+00 0.718623400E+00 0.705747545E+00 0.688216805E+00 0.665594757E+00 0.637511015E+00 0.603723228E+00 0.564192772E+00 0.519163728E+00 0.469233155E+00 0.415396512E+00 0.359050393E+00 0.301938087E+00 0.246031553E+00 0.193354487E+00 0.145766914E+00 0.104744010E+00 0.711911172E-01 0.453367904E-01 0.267338082E-01 0.143757779E-01 0.690811360E-02 0.288448902E-02 0.100452744E-02 0.273383950E-03 0.516313448E-04 0.506717060E-05 0.261990090E-05 0.276126484E-04 0.151293672E-03 0.575403974E-03 0.171039917E-02 0.424040388E-02 0.913377851E-02 0.175774414E-01 0.308373030E-01 0.500710458E-01 0.761336312E-01 0.109417751E+00 0.149761513E+00 0.196439266E+00 0.248232841E+00 0.303565621E+00 0.360671282E+00 0.417769313E+00 0.473217338E+00 0.525626898E+00 0.573928952E+00 0.617394149E+00 0.655613065E+00 0.688449562E+00 0.715979993E+00 0.738429248E+00 0.756113052E+00 0.769833148E+00 0.780069888E+00 0.787245631E+00 0.791711152E+00 0.793734491E+00 0.793489754E+00 0.791048586E+00 0.786371827E+00 0.779303253E+00 0.769567072E+00 0.756763756E+00 0.740375340E+00 0.719770074E+00 0.694218636E+00 0.662912071E+00 0.625000954E+00 0.579649985E+00 0.526116014E+00 0.463868856E+00 0.392768830E+00 0.313321233E+00 0.227029890E+00 0.136883646E+00 0.125550093E-05
0.164791495E+00 0.280369282E+00 0.368520528E+00 0.439629853E+00 0.498749822E+00 0.548501492E+00 0.590433598E+00 0.625640213E+00 0.655026376E+00 0.679410636E+00 0.699554503E+00 0.716160774E+00 0.729862869E+00 0.741211057E+00 0.750660360E+00 0.758561671E+00 0.765155077E+00 0.770565629E+00 0.774801970E+00 0.777756810E+00 0.779209673E+00 0.778831542E+00 0.776190937E+00 0.770760536E+00 0.761923194E+00 0.748532653E+00 0.729986548E+00 0.705698371E+00 0.675158024E+00 0.638016284E+00 0.594186544E+00 0.543953061E+00 0.488066494E+00 0.427801609E+00 0.364950210E+00 0.301730782E+00 0.240606159E+00 0.184024036E+00 0.134116322E+00 0.924124271E-01 0.596311018E-01 0.356061645E-01 0.193745736E-01 0.941391475E-02 0.397148402E-02 0.139630982E-02 0.383355771E-03 0.729867388E-04 0.721637116E-05 0.375118543E-05 0.392616712E-04 0.213513471E-03 0.805485062E-03 0.237342436E-02 0.582876755E-02 0.124280574E-01 0.236584079E-01 0.410287194E-01 0.658117980E-01 0.987986252E-01 0.140122324E+00 0.189189479E+00 0.244729280E+00 0.304943413E+00 0.367721826E+00 0.430878848E+00 0.492371351E+00 0.550463557E+00 0.603828728E+00 0.651580095E+00 0.693248212E+00 0.728717566E+00 0.758143663E+00 0.781867743E+00 0.800340056E+00 0.814058542E+00 0.824119329E+00 0.831109703E+00 0.835540354E+00 0.837832987E+00 0.838307261E+00 0.837168753E+00 0.834497154E+00 0.830235600E+00 0.824183047E+00 0.815988958E+00 0.805146456E+00 0.790994346E+00 0.772719741E+00 0.749369502E+00 0.719866514E+00 0.683047652E+00 0.637720942E+00 0.582751930E+00 0.517203748E+00 0.440555602E+00 0.353031695E+00 0.256086022E+00 0.153104857E+00 0.129300963E-05
0.190707922E+00 0.318003505E+00 0.411762506E+00 0.485490859E+00 0.545448303E+00 0.594771683E+00 0.635301471E+00 0.668362617E+00 0.695077538E+00 0.716476500E+00 0.733521700E+00 0.747100055E+00 0.758008301E+00 0.766936362E+00 0.774455667E+00 0.781009734E+00 0.786908209E+00 0.792323649E+00 0.797289789E+00 0.801702678E+00 0.805323660E+00 0.807786226E+00 0.808603406E+00 0.807178199E+00 0.802811801E+00 0.794151604E+00 0.780460835E+00 0.760973454E+00 0.734943330E+00 0.701724231E+00 0.660881281E+00 0.612327397E+00 0.556466103E+00 0.494311690E+00 0.427549720E+00 0.358500779E+00 0.289962471E+00 0.224929512E+00 0.166223332E+00 0.116095953E+00 0.758959055E-01 0.458845161E-01 0.252621006E-01 0.124102160E-01 0.528924912E-02 0.187719963E-02 0.519850757E-03 0.997570896E-04 0.993438152E-05 0.519028708E-05 0.539608081E-04 0.291315548E-03 0.109028805E-02 0.318495184E-02 0.774883060E-02 0.163561385E-01 0.308016576E-01 0.528074838E-01 0.836877748E-01 0.124057829E+00 0.173660398E+00 0.231347501E+00 0.295214981E+00 0.362851411E+00 0.431642652E+00 0.499069422E+00 0.562950492E+00 0.621595681E+00 0.673870623E+00 0.719174981E+00 0.757367015E+00 0.788655937E+00 0.813489616E+00 0.832455039E+00 0.846199811E+00 0.855377734E+00 0.861329913E+00 0.864746869E+00 0.866229355E+00 0.866273880E+00 0.865257204E+00 0.863419712E+00 0.860851765E+00 0.857481658E+00 0.853064835E+00 0.847177505E+00 0.839205742E+00 0.828344464E+00 0.813594162E+00 0.793768644E+00 0.767505109E+00 0.733298957E+00 0.689559937E+00 0.634703100E+00 0.567304850E+00 0.486360013E+00 0.391691655E+00 0.284590214E+00 0.168790072E+00 0.131823879E-05