<?xml version="1.0"?>
<VTKFile type="StructuredGrid">
<StructuredGrid WholeExtent="     0   100     0   100     0     0">
<Piece Extent="     0   100     0   100     0     0">
<Points>
<DataArray type="Float32" NumberOfComponents="3"/>
0.000000000E+00 0.000000000E+00 0.000000000E+00 0.199999996E-01 0.000000000E+00 0.000000000E+00 0.399999991E-01 0.000000000E+00 0.000000000E+00 0.599999987E-01 0.000000000E+00 0.000000000E+00 0.799999982E-01 0.000000000E+00 0.000000000E+00 0.100000001E+00 0.000000000E+00 0.000000000E+00 0.119999997E+00 0.000000000E+00 0.000000000E+00 0.140000001E+00 0.000000000E+00 0.000000000E+00 0.159999996E+00 0.000000000E+00 0.000000000E+00 0.180000007E+00 0.000000000E+00 0.000000000E+00 0.200000003E+00 0.000000000E+00 0.000000000E+00 0.219999999E+00 0.000000000E+00 0.000000000E+00 0.239999995E+00 0.000000000E+00 0.000000000E+00 0.259999990E+00 0.000000000E+00 0.000000000E+00 0.280000001E+00 0.000000000E+00 0.000000000E+00 0.300000012E+00 0.000000000E+00 0.000000000E+00 0.319999993E+00 0.000000000E+00 0.000000000E+00 0.340000004E+00 0.000000000E+00 0.000000000E+00 0.360000014E+00 0.000000000E+00 0.000000000E+00 0.379999995E+00 0.000000000E+00 0.000000000E+00 0.400000006E+00 0.000000000E+00 0.000000000E+00 0.419999987E+00 0.000000000E+00 0.000000000E+00 0.439999998E+00 0.000000000E+00 0.000000000E+00 0.460000008E+00 0.000000000E+00 0.000000000E+00 0.479999989E+00 0.000000000E+00 0.000000000E+00 0.500000000E+00 0.000000000E+00 0.000000000E+00 0.519999981E+00 0.000000000E+00 0.000000000E+00 0.540000021E+00 0.000000000E+00 0.000000000E+00 0.560000002E+00 0.000000000E+00 0.000000000E+00 0.579999983E+00 0.000000000E+00 0.000000000E+00 0.600000024E+00 0.000000000E+00 0.000000000E+00 0.620000005E+00 0.000000000E+00 0.000000000E+00 0.639999986E+00 0.000000000E+00 0.000000000E+00 0.660000026E+00 0.000000000E+00 0.000000000E+00 0.680000007E+00 0.000000000E+00 0.000000000E+00 0.699999988E+00 0.000000000E+00 0.000000000E+00 0.720000029E+00 0.000000000E+00 0.000000000E+00 0.740000010E+00 0.000000000E+00 0.000000000E+00 0.759999990E+00 0.000000000E+00 0.000000000E+00 0.779999971E+00 0.000000000E+00 0.000000000E+00 0.800000012E+00 0.000000000E+00 0.000000000E+00 0.819999993E+00 0.000000000E+00 0.000000000E+00 0.839999974E+00 0.000000000E+00 0.000000000E+00 0.860000014E+00 0.000000000E+00 0.000000000E+00 0.879999995E+00 0.000000000E+00 0.000000000E+00 0.899999976E+00 0.000000000E+00 0.000000000E+00 0.920000017E+00 0.000000000E+00 0.000000000E+00 0.939999998E+00 0.000000000E+00 0.000000000E+00 0.959999979E+00 0.000000000E+00 0.000000000E+00 0.980000019E+00 0.000000000E+00 0.000000000E+00 0.100000000E+01 0.000000000E+00 0.000000000E+00 0.101999998E+01 0.000000000E+00 0.000000000E+00 0.103999996E+01 0.000000000E+00 0.000000000E+00 0.105999994E+01 0.000000000E+00 0.000000000E+00 0.108000004E+01 0.000000000E+00 0.000000000E+00 0.110000002E+01 0.000000000E+00 0.000000000E+00 0.112000000E+01 0.000000000E+00 0.000000000E+00 0.113999999E+01 0.000000000E+00 0.000000000E+00 0.115999997E+01 0.000000000E+00 0.000000000E+00 0.117999995E+01 0.000000000E+00 0.000000000E+00 0.120000005E+01 0.000000000E+00 0.000000000E+00 0.122000003E+01 0.000000000E+00 0.000000000E+00 0.124000001E+01 0.000000000E+00 0.000000000E+00 0.125999999E+01 0.000000000E+00 0.000000000E+00 0.127999997E+01 0.000000000E+00 0.000000000E+00 0.129999995E+01 0.000000000E+00 0.000000000E+00 0.132000005E+01 0.000000000E+00 0.000000000E+00 0.134000003E+01 0.000000000E+00 0.000000000E+00 0.136000001E+01 0.000000000E+00 0.000000000E+00 0.138000000E+01 0.000000000E+00 0.000000000E+00 0.139999998E+01 0.000000000E+00 0.000000000E+00 0.141999996E+01 0.000000000E+00 0.000000000E+00 0.144000006E+01 0.000000000E+00 0.000000000E+00 0.146000004E+01 0.000000000E+00 0.000000000E+00 0.148000002E+01 0.000000000E+00 0.000000000E+00 0.150000000E+01 0.000000000E+00 0.000000000E+00 0.151999998E+01 0.000000000E+00 0.000000000E+00 0.153999996E+01 0.000000000E+00 0.000000000E+00 0.155999994E+01 0.000000000E+00 0.000000000E+00 0.158000004E+01 0.000000000E+00 0.000000000E+00 0.160000002E+01 0.000000000E+00 0.000000000E+00 0.162000000E+01 0.000000000E+00 0.000000000E+00 0.163999999E+01 0.000000000E+00 0.000000000E+00 0.165999997E+01 0.000000000E+00 0.000000000E+00 0.167999995E+01 0.000000000E+00 0.000000000E+00 0.170000005E+01 0.000000000E+00 0.000000000E+00 0.172000003E+01 0.000000000E+00 0.000000000E+00 0.174000001E+01 0.000000000E+00 0.000000000E+00 0.175999999E+01 0.000000000E+00 0.000000000E+00 0.177999997E+01 0.000000000E+00 0.000000000E+00 0.179999995E+01 0.000000000E+00 0.000000000E+00 0.182000005E+01 0.000000000E+00 0.000000000E+00 0.184000003E+01 0.000000000E+00 0.000000000E+00 0.186000001E+01 0.000000000E+00 0.000000000E+00 0.188000000E+01 0.000000000E+00 0.000000000E+00 0.189999998E+01 0.000000000E+00 0.000000000E+00 0.191999996E+01 0.000000000E+00 0.000000000E+00 0.194000006E+01 0.000000000E+00 0.000000000E+00 0.196000004E+01 0.000000000E+00 0.000000000E+00 0.198000002E+01 0.000000000E+00 0.000000000E+00 0.200000000E+01 0.000000000E+00 0.000000000E+00
0.000000000E+00 0.999999978E-02 0.000000000E+00 0.199999996E-01 0.999999978E-02 0.000000000E+00 0.399999991E-01 0.999999978E-02 0.000000000E+00 0.599999987E-01 0.999999978E-02 0.000000000E+00 0.799999982E-01 0.999999978E-02 0.000000000E+00 0.100000001E+00 0.999999978E-02 0.000000000E+00 0.119999997E+00 0.999999978E-02 0.000000000E+00 0.140000001E+00 0.999999978E-02 0.000000000E+00 0.159999996E+00 0.999999978E-02 0.000000000E+00 0.180000007E+00 0.999999978E-02 0.000000000E+00 0.200000003E+00 0.999999978E-02 0.000000000E+00 0.219999999E+00 0.999999978E-02 0.000000000E+00 0.239999995E+00 0.999999978E-02 0.000000000E+00 0.259999990E+00 0.999999978E-02 0.000000000E+00 0.280000001E+00 0.999999978E-02 0.000000000E+00 0.300000012E+00 0.999999978E-02 0.000000000E+00 0.319999993E+00 0.999999978E-02 0.000000000E+00 0.340000004E+00 0.999999978E-02 0.000000000E+00 0.360000014E+00 0.999999978E-02 0.000000000E+00 0.379999995E+00 0.999999978E-02 0.000000000E+00 0.400000006E+00 0.999999978E-02 0.000000000E+00 0.419999987E+00 0.999999978E-02 0.000000000E+00 0.439999998E+00 0.999999978E-02 0.000000000E+00 0.460000008E+00 0.999999978E-02 0.000000000E+00 0.479999989E+00 0.999999978E-02 0.000000000E+00 0.500000000E+00 0.999999978E-02 0.000000000E+00 0.519999981E+00 0.999999978E-02 0.000000000E+00 0.540000021E+00 0.999999978E-02 0.000000000E+00 0.560000002E+00 0.999999978E-02 0.000000000E+00 0.579999983E+00 0.999999978E-02 0.000000000E+00 0.600000024E+00 0.999999978E-02 0.000000000E+00 0.620000005E+00 0.999999978E-02 0.000000000E+00 0.639999986E+00 0.999999978E-02 0.000000000E+00 0.660000026E+00 0.999999978E-02 0.000000000E+00 0.680000007E+00 0.999999978E-02 0.000000000E+00 0.699999988E+00 0.999999978E-02 0.000000000E+00 0.720000029E+00 0.999999978E-02 0.000000000E+00 0.740000010E+00 0.999999978E-02 0.000000000E+00 0.759999990E+00 0.999999978E-02 0.000000000E+00 0.779999971E+00 0.999999978E-02 0.000000000E+00 0.800000012E+00 0.999999978E-02 0.000000000E+00 0.819999993E+00 0.999999978E-02 0.000000000E+00 0.839999974E+00 0.999999978E-02 0.000000000E+00 0.860000014E+00 0.999999978E-02 0.000000000E+00 0.879999995E+00 0.999999978E-02 0.000000000E+00 0.899999976E+00 0.999999978E-02 0.000000000E+00 0.920000017E+00 0.999999978E-02 0.000000000E+00 0.939999998E+00 0.999999978E-02 0.000000000E+00 0.959999979E+00 0.999999978E-02 0.000000000E+00 0.980000019E+00 0.999999978E-02 0.000000000E+00 0.100000000E+01 0.999999978E-02 0.000000000E+00 0.101999998E+01 0.999999978E-02 0.000000000E+00 0.103999996E+01 0.999999978E-02 0.000000000E+00 0.105999994E+01 0.999999978E-02 0.000000000E+00 0.108000004E+01 0.999999978E-02 0.000000000E+00 0.110000002E+01 0.999999978E-02 0.000000000E+00 0.112000000E+01 0.999999978E-02 0.000000000E+00 0.113999999E+01 0.999999978E-02 0.000000000E+00 0.115999997E+01 0.999999978E-02 0.000000000E+00 0.117999995E+01 0.999999978E-02 0.000000000E+00 0.120000005E+01 0.999999978E-02 0.000000000E+00 0.122000003E+01 0.999999978E-02 0.000000000E+00 0.124000001E+01 0.999999978E-02 0.000000000E+00 0.125999999E+01 0.999999978E-02 0.000000000E+00 0.127999997E+01 0.999999978E-02 0.000000000E+00 0.129999995E+01 0.999999978E-02 0.000000000E+00 0.132000005E+01 0.999999978E-02 0.000000000E+00 0.134000003E+01 0.999999978E-02 0.000000000E+00 0.136000001E+01 0.999999978E-02 0.000000000E+00 0.138000000E+01 0.999999978E-02 0.000000000E+00 0.139999998E+01 0.999999978E-02 0.000000000E+00 0.141999996E+01 0.999999978E-02 0.000000000E+00 0.144000006E+01 0.999999978E-02 0.000000000E+00 0.146000004E+01 0.999999978E-02 0.000000000E+00 0.148000002E+01 0.999999978E-02 0.000000000E+00 0.150000000E+01 0.999999978E-02 0.000000000E+00 0.151999998E+01 0.999999978E-02 0.000000000E+00 0.153999996E+01 0.999999978E-02 0.000000000E+00 0.155999994E+01 0.999999978E-02 0.000000000E+00 0.158000004E+01 0.999999978E-02 0.000000000E+00 0.160000002E+01 0.999999978E-02 0.000000000E+00 0.162000000E+01 0.999999978E-02 0.000000000E+00 0.163999999E+01 0.999999978E-02 0.000000000E+00 0.165999997E+01 0.999999978E-02 0.000000000E+00 0.167999995E+01 0.999999978E-02 0.000000000E+00 0.170000005E+01 0.999999978E-02 0.000000000E+00 0.172000003E+01 0.999999978E-02 0.000000000E+00 0.174000001E+01 0.999999978E-02 0.000000000E+00 0.175999999E+01 0.999999978E-02 0.000000000E+00 0.177999997E+01 0.999999978E-02 0.000000000E+00 0.179999995E+01 0.999999978E-02 0.000000000E+00 0.182000005E+01 0.999999978E-02 0.000000000E+00 0.184000003E+01 0.999999978E-02 0.000000000E+00 0.186000001E+01 0.999999978E-02 0.000000000E+00 0.188000000E+01 0.999999978E-02 0.000000000E+00 0.189999998E+01 0.999999978E-02 0.000000000E+00 0.191999996E+01 0.999999978E-02 0.000000000E+00 0.194000006E+01 0.999999978E-02 0.000000000E+00 0.196000004E+01 0.999999978E-02 0.000000000E+00 0.198000002E+01 0.999999978E-02 0.000000000E+00 0.200000000E+01 0.999999978E-02 0.000000000E+00
[...]
<CellData Scalars="Temperature, U, V">
<DataArray type="Float32" Name="Temp, K"/>
0.301569415E-14 0.331510772E-13 0.205474106E-12 0.842580996E-12 0.252815260E-11 0.594518705E-11 0.114933774E-10 0.188921205E-10 0.270474199E-10 0.343208136E-10 0.390942938E-10 0.403516734E-10 0.380004951E-10 0.328149660E-10 0.260774371E-10 0.191179537E-10 0.129507594E-10 0.811364864E-11 0.470270481E-11 0.252133449E-11 0.124978359E-11 0.572250363E-12 0.241758897E-12 0.941040933E-13 0.336933138E-13 0.117473949E-13 0.397747233E-14 0.130397207E-14 0.412631783E-15 0.125609877E-15 0.366491602E-16 0.102083584E-16 0.270276736E-17 0.676926977E-18 0.159532961E-18 0.351692607E-19 0.720424392E-20 0.136095313E-20 0.235049576E-21 0.367412629E-22 0.513623431E-23 0.632966755E-24 0.680681882E-25 0.149194255E-23 0.585516798E-18 0.302888712E-15 0.714271714E-13 0.912180487E-11 0.615401397E-09 0.872225125E-09 0.175035680E-10 0.181974498E-12 0.108114152E-14 0.359028811E-17 0.537445942E-20 0.246915328E-25 0.102681987E-24 0.855448457E-24 0.628170175E-23 0.412469082E-22 0.245093302E-21 0.133135376E-20 0.666895951E-20 0.310399105E-19 0.135140193E-18 0.553647390E-18 0.214577413E-17 0.790550160E-17 0.278081843E-16 0.937678641E-16 0.304210771E-15 0.952828845E-15 0.289036038E-14 0.851674773E-14 0.244451117E-13 0.685257515E-13 0.177112556E-12 0.422642146E-12 0.932198004E-12 0.190203821E-11 0.359198066E-11 0.627947781E-11 0.101595277E-10 0.152000947E-10 0.210004895E-10 0.267342971E-10 0.312588913E-10 0.334190245E-10 0.324669805E-10 0.284215221E-10 0.221610907E-10 0.151488197E-10 0.888036259E-11 0.432738871E-11 0.167622676E-11 0.483345406E-12 0.939775872E-13 0.104939776E-13 0.482141953E-15 0.121729189E-20
0.529608841E-13 0.549877364E-12 0.325823613E-11 0.129208207E-10 0.378669908E-10 0.876991535E-10 0.168114106E-09 0.275561046E-09 0.395294131E-09 0.504665643E-09 0.580483439E-09 0.606986295E-09 0.580796189E-09 0.510962050E-09 0.414700996E-09 0.311211223E-09 0.216257776E-09 0.139255149E-09 0.831115038E-10 0.459633859E-10 0.235391030E-10 0.111527272E-10 0.488258566E-11 0.197220213E-11 0.733737398E-12 0.265471212E-12 0.931650726E-13 0.316256590E-13 0.103532422E-13 0.325804765E-14 0.982096903E-15 0.282486706E-15 0.772067884E-16 0.199573602E-16 0.485391403E-17 0.110435136E-17 0.233513707E-18 0.455490268E-19 0.812630716E-20 0.131287851E-20 0.189820419E-21 0.242129590E-22 0.334897723E-23 0.676003561E-21 0.148304168E-17 0.690778080E-15 0.157507850E-12 0.198344327E-10 0.133163947E-08 0.188419524E-08 0.377719730E-10 0.394891693E-12 0.238082983E-14 0.819074822E-17 0.137649203E-19 0.583549994E-23 0.406449971E-23 0.326724320E-22 0.231949946E-21 0.147358793E-20 0.847755680E-20 0.446089005E-19 0.216548659E-18 0.977041648E-18 0.412423361E-17 0.163822293E-16 0.615549960E-16 0.219811363E-15 0.749167555E-15 0.244642512E-14 0.768158679E-14 0.232678629E-13 0.681967707E-13 0.193953536E-12 0.536665764E-12 0.144830892E-11 0.360834322E-11 0.831111135E-11 0.177184361E-10 0.349946183E-10 0.640695136E-10 0.108764997E-09 0.171178433E-09 0.249602644E-09 0.336776246E-09 0.419610069E-09 0.481346796E-09 0.506209019E-09 0.485173623E-09 0.420379898E-09 0.325641597E-09 0.222101171E-09 0.130567612E-09 0.641996109E-10 0.252823977E-10 0.748073912E-11 0.150897968E-11 0.176933785E-12 0.863864339E-14 0.222115507E-19
0.618143720E-12 0.608655704E-11 0.346025500E-10 0.133076591E-09 0.381705778E-09 0.871745509E-09 0.165809588E-08 0.271063527E-08 0.389516330E-08 0.500054576E-08 0.580337378E-08 0.614142692E-08 0.596374150E-08 0.533821654E-08 0.441854731E-08 0.338913164E-08 0.241202058E-08 0.159377145E-08 0.977819048E-09 0.556829416E-09 0.294103880E-09 0.143927301E-09 0.651749765E-10 0.272671937E-10 0.105208897E-10 0.394233301E-11 0.143113841E-11 0.501988642E-12 0.169649234E-12 0.550693761E-13 0.171119646E-13 0.507119134E-14 0.142746333E-14 0.379924955E-15 0.951297608E-16 0.222823630E-16 0.485122197E-17 0.974569412E-18 0.179137297E-18 0.298328116E-19 0.444896911E-20 0.585777765E-21 0.691129054E-22 0.215554745E-20 0.274502905E-17 0.117719136E-14 0.260451057E-12 0.323625397E-10 0.216191354E-08 0.305368109E-08 0.611814488E-10 0.643240452E-12 0.393246396E-14 0.139617516E-16 0.256689912E-19 0.284018420E-22 0.101302444E-21 0.789535160E-21 0.543387263E-20 0.334914509E-19 0.187040994E-18 0.955890329E-18 0.450838208E-17 0.197679093E-16 0.811001622E-16 0.313094241E-15 0.114320903E-14 0.396599926E-14 0.131263646E-13 0.416030532E-13 0.126700354E-12 0.371931164E-12 0.105543883E-11 0.290302006E-11 0.775877279E-11 0.201962717E-10 0.485936881E-10 0.108231923E-09 0.223425944E-09 0.427897134E-09 0.760803032E-09 0.125627830E-08 0.192646277E-08 0.274199730E-08 0.361839625E-08 0.441870851E-08 0.497941288E-08 0.515711651E-08 0.488119856E-08 0.418940571E-08 0.322574678E-08 0.219554486E-08 0.129404087E-08 0.641494968E-09 0.256450305E-09 0.776825201E-10 0.162056913E-10 0.198770731E-11 0.102701322E-12 0.268016987E-18
0.526998237E-11 0.493349112E-10 0.269702233E-09 0.100767172E-08 0.283217427E-08 0.638283071E-08 0.120497683E-07 0.196466665E-07 0.282744423E-07 0.364850798E-07 0.426990567E-07 0.457009897E-07 0.450055424E-07 0.409559817E-07 0.345446480E-07 0.270587339E-07 0.197057819E-07 0.133490987E-07 0.841135517E-08 0.492756635E-08 0.268159317E-08 0.135412170E-08 0.633613939E-09 0.274278072E-09 0.109638208E-09 0.425015960E-10 0.159413559E-10 0.577087033E-11 0.201083442E-11 0.672425169E-12 0.215096441E-12 0.655828202E-13 0.189843258E-13 0.519442193E-14 0.133683907E-14 0.321822254E-15 0.720147412E-16 0.148722293E-16 0.281108170E-17 0.481603888E-18 0.739265531E-19 0.100255357E-19 0.118523996E-20 0.469964644E-20 0.443569193E-17 0.177819914E-14 0.382820024E-12 0.469615596E-10 0.312093840E-08 0.440046577E-08 0.881581336E-10 0.932195293E-12 0.577531289E-14 0.210964938E-16 0.417208608E-19 0.241215237E-21 0.178446062E-20 0.135031201E-19 0.902874941E-19 0.540993078E-18 0.293877254E-17 0.146146204E-16 0.670927717E-16 0.286393036E-15 0.114389693E-14 0.429898443E-14 0.152773895E-13 0.515656345E-13 0.165970929E-12 0.511247728E-12 0.151211194E-11 0.430715966E-11 0.118480182E-10 0.315534092E-10 0.815468873E-10 0.204960396E-09 0.476749806E-09 0.102784514E-08 0.205657047E-08 0.382291088E-08 0.660715349E-08 0.106218172E-07 0.158845079E-07 0.220882388E-07 0.285318276E-07 0.341768072E-07 0.378628471E-07 0.386457835E-07 0.361445203E-07 0.307447934E-07 0.235390161E-07 0.159909863E-07 0.944847578E-08 0.472023709E-08 0.191386884E-08 0.592662364E-09 0.127614183E-09 0.163342187E-10 0.890810320E-12 0.235267723E-17
0.351176102E-10 0.313338910E-09 0.165075653E-08 0.600166894E-08 0.165470908E-07 0.368226623E-07 0.690125077E-07 0.112217322E-06 0.161692853E-06 0.209624801E-06 0.247246817E-06 0.267460848E-06 0.266909694E-06 0.246740285E-06 0.211893209E-06 0.169348951E-06 0.126087969E-06 0.874879689E-07 0.565639198E-07 0.340562494E-07 0.190773868E-07 0.993064475E-08 0.479661999E-08 0.214614504E-08 0.887825313E-09 0.355662166E-09 0.137675829E-09 0.513769478E-10 0.184353626E-10 0.634277440E-11 0.208591282E-11 0.653437211E-12 0.194239590E-12 0.545557692E-13 0.144088470E-13 0.355919856E-14 0.817214899E-15 0.173186924E-15 0.335996927E-16 0.591051856E-17 0.931993185E-18 0.129912489E-18 0.157417269E-19 0.979440330E-20 0.663352322E-17 0.251289942E-14 0.527593323E-12 0.639224298E-10 0.422514912E-08 0.594661609E-08 0.119185731E-09 0.126773331E-11 0.795559009E-14 0.298275208E-16 0.629089209E-19 0.286974965E-20 0.237612348E-19 0.174925784E-18 0.113867450E-17 0.664608479E-17 0.351835880E-16 0.170571736E-15 0.763542868E-15 0.317832300E-14 0.123790350E-13 0.453589531E-13 0.157116887E-12 0.516696983E-12 0.161949664E-11 0.485475765E-11 0.139626401E-10 0.386388317E-10 0.103150426E-09 0.266284578E-09 0.666192879E-09 0.161848090E-08 0.364324104E-08 0.761066943E-08 0.147741295E-07 0.266816578E-07 0.448670221E-07 0.702879461E-07 0.102599692E-06 0.139506852E-06 0.176544589E-06 0.207604529E-06 0.226286417E-06 0.227784881E-06 0.210654889E-06 0.177682779E-06 0.135326346E-06 0.917792065E-07 0.543628644E-07 0.273593841E-07 0.112421406E-07 0.355422358E-08 0.788427879E-09 0.105062452E-09 0.603195358E-11 0.160747564E-16
0.191139826E-09 0.162947422E-08 0.829019697E-08 0.293749647E-07 0.795256412E-07 0.174836003E-06 0.325357234E-06 0.527546433E-06 0.760798287E-06 0.990450985E-06 0.117661432E-05 0.128550721E-05 0.129897944E-05 0.121882510E-05 0.106477148E-05 0.867509414E-06 0.659744217E-06 0.468452299E-06 0.310474633E-06 0.191937872E-06 0.110566603E-06 0.592717662E-07 0.295229245E-07 0.136393368E-07 0.583311577E-08 0.241217868E-08 0.962608548E-09 0.369880127E-09 0.136515826E-09 0.482661550E-10 0.162982110E-10 0.523877469E-11 0.159698340E-11 0.459777127E-12 0.124434060E-12 0.314903167E-13 0.740693721E-14 0.160808792E-14 0.319660123E-15 0.576308512E-16 0.931724165E-17 0.133226423E-17 0.165622626E-18 0.306879451E-19 0.943521415E-17 0.340399502E-14 0.698236282E-12 0.835769648E-10 0.549292301E-08 0.771676678E-08 0.154814023E-09 0.165676598E-11 0.105277403E-13 0.404347192E-16 0.925120025E-19 0.303966935E-19 0.249995100E-18 0.179416592E-17 0.113925079E-16 0.648950851E-16 0.335410065E-15 0.158798190E-14 0.694280889E-14 0.282274848E-13 0.107371916E-12 0.384151207E-12 0.129882509E-11 0.416728631E-11 0.127360691E-10 0.372010686E-10 0.104166550E-09 0.280376861E-09 0.727234106E-09 0.182180759E-08 0.441689130E-08 0.103830926E-07 0.226418724E-07 0.458753675E-07 0.864861320E-07 0.151891655E-06 0.248743021E-06 0.380080138E-06 0.542032353E-06 0.721314109E-06 0.895061191E-06 0.103415061E-05 0.110993722E-05 0.110274289E-05 0.100908881E-05 0.844517274E-06 0.640132214E-06 0.433543732E-06 0.257444526E-06 0.130488090E-06 0.543008092E-07 0.175054566E-07 0.399332833E-08 0.552714097E-09 0.333187540E-10 0.893290674E-16
0.876798856E-09 0.715878823E-08 0.352432004E-07 0.121880447E-06 0.324289005E-06 0.704657793E-06 0.130215653E-05 0.210499593E-05 0.303716047E-05 0.396830183E-05 0.474493527E-05 0.523185554E-05 0.534877972E-05 0.508962648E-05 0.451912683E-05 0.374999877E-05 0.291033416E-05 0.211272345E-05 0.143404679E-05 0.909411312E-06 0.538200709E-06 0.296828944E-06 0.152312666E-06 0.725830560E-07 0.320572404E-07 0.136701610E-07 0.561779823E-08 0.222024088E-08 0.841918313E-09 0.305531794E-09 0.105806364E-09 0.348532071E-10 0.108814954E-10 0.320697223E-11 0.888140147E-12 0.229931471E-12 0.553189933E-13 0.122841402E-13 0.249780000E-14 0.460726684E-15 0.762306955E-16 0.111601984E-16 0.142115874E-17 0.173894135E-18 0.129667931E-16 0.447849104E-14 0.898785278E-12 0.106304271E-09 0.694484070E-08 0.973846959E-08 0.195669148E-09 0.210730196E-11 0.135559661E-13 0.532564322E-16 0.151284109E-18 0.266447542E-18 0.214524660E-17 0.150385819E-16 0.933237608E-16 0.519748575E-15 0.262721986E-14 0.121670345E-13 0.520383161E-13 0.206961184E-12 0.769956256E-12 0.269349387E-11 0.890087223E-11 0.278985984E-10 0.832414623E-10 0.237198317E-09 0.647381537E-09 0.169676051E-08 0.428069358E-08 0.104174749E-07 0.245016754E-07 0.557907711E-07 0.117976583E-06 0.232074697E-06 0.425310617E-06 0.727086558E-06 0.116068736E-05 0.173146623E-05 0.241461385E-05 0.314767613E-05 0.383331553E-05 0.435544143E-05 0.460685533E-05 0.452101267E-05 0.409654467E-05 0.340394035E-05 0.256917065E-05 0.173823742E-05 0.103491323E-05 0.528191208E-06 0.222464010E-06 0.730493284E-07 0.171074692E-07 0.245388398E-08 0.154909280E-09 0.416588141E-15
0.347124307E-08 0.272062959E-07 0.129851969E-06 0.438862344E-06 0.114852230E-05 0.246753552E-05 0.452805034E-05 0.729594512E-05 0.105272247E-04 0.137964662E-04 0.165925558E-04 0.184494966E-04 0.190673600E-04 0.183836928E-04 0.165753409E-04 0.139958183E-04 0.110742894E-04 0.821140566E-05 0.570278144E-05 0.370621956E-05 0.225121062E-05 0.127611713E-05 0.673915906E-06 0.330924479E-06 0.150782768E-06 0.662347688E-07 0.280011161E-07 0.113702461E-07 0.442503145E-08 0.164644243E-08 0.584067683E-09 0.196934621E-09 0.628943425E-10 0.189507333E-10 0.536330745E-11 0.141850377E-11 0.348574685E-12 0.790519248E-13 0.164163489E-13 0.309290671E-14 0.522828916E-15 0.782272117E-16 0.101853892E-16 0.115773532E-17 0.174366745E-16 0.576854763E-14 0.113394916E-11 0.132537967E-09 0.860397087E-08 0.120425661E-07 0.242464909E-09 0.262863060E-11 0.171160947E-13 0.687102804E-16 0.376357666E-18 0.195242273E-17 0.153819479E-16 0.105523279E-15 0.641113732E-15 0.349690141E-14 0.173153372E-13 0.785619874E-13 0.329188526E-12 0.128249798E-11 0.467287710E-11 0.160044634E-10 0.517573692E-10 0.158670493E-09 0.462741234E-09 0.128782185E-08 0.342973738E-08 0.876267503E-08 0.215254552E-07 0.509418498E-07 0.116353014E-06 0.256892065E-06 0.527316331E-06 0.100808631E-05 0.179766744E-05 0.299431144E-05 0.466388929E-05 0.679872119E-05 0.927997280E-05 0.118612570E-04 0.141894443E-04 0.158685179E-04 0.165555102E-04 0.160615782E-04 0.144221931E-04 0.119063461E-04 0.895336234E-05 0.605384776E-05 0.361452294E-05 0.185733518E-05 0.791359355E-06 0.264414183E-06 0.634707646E-07 0.941464950E-08 0.620772211E-09 0.166957298E-14
0.120857484E-07 0.911302394E-07 0.422436329E-06 0.139697227E-05 0.359843216E-05 0.764601464E-05 0.139323483E-04 0.223690149E-04 0.322613705E-04 0.423818601E-04 0.512302067E-04 0.573972538E-04 0.599141604E-04 0.584780537E-04 0.534914616E-04 0.459171024E-04 0.370075031E-04 0.280016229E-04 0.198787420E-04 0.132271498E-04 0.823823666E-05 0.479510572E-05 0.260357024E-05 0.131606907E-05 0.617996989E-06 0.279360137E-06 0.121369027E-06 0.505844540E-07 0.201831138E-07 0.769133202E-08 0.279194845E-08 0.962517954E-09 0.314080401E-09 0.966370942E-10 0.279145977E-10 0.753265852E-11 0.188806544E-11 0.436684163E-12 0.924787184E-13 0.177690944E-13 0.306380181E-14 0.467711371E-15 0.621553571E-16 0.707527200E-17 0.234059076E-16 0.731252607E-14 0.140922744E-11 0.162774752E-09 0.104962021E-07 0.146636152E-07 0.296016239E-09 0.323154459E-11 0.212977947E-13 0.873582335E-16 0.156092177E-17 0.121693066E-16 0.939520210E-16 0.631847827E-15 0.376467647E-14 0.201426535E-13 0.978521599E-13 0.435589282E-12 0.179063708E-11 0.684296413E-11 0.244499126E-10 0.820869483E-10 0.260096139E-09 0.780780218E-09 0.222811258E-08 0.606274408E-08 0.157720752E-07 0.393215167E-07 0.941482554E-07 0.216895145E-06 0.481574773E-06 0.103202069E-05 0.205840638E-05 0.382805683E-05 0.664878689E-05 0.108006834E-04 0.164298654E-04 0.234260988E-04 0.313263736E-04 0.392951260E-04 0.462193238E-04 0.509217352E-04 0.524480674E-04 0.503455813E-04 0.448347128E-04 0.368010005E-04 0.275886741E-04 0.186511388E-04 0.111701247E-04 0.577876153E-05 0.248974993E-05 0.845735201E-06 0.207780502E-06 0.318052749E-07 0.218485785E-08 0.585975275E-14
0.375790705E-07 0.273181513E-06 0.123195230E-05 0.399064947E-05 0.101237847E-04 0.212788382E-04 0.384971790E-04 0.615674217E-04 0.887073547E-04 0.116737501E-03 0.141717857E-03 0.159852731E-03 0.168386323E-03 0.166224097E-03 0.154114023E-03 0.134362243E-03 0.110199515E-03 0.850068172E-04 0.616288962E-04 0.419451644E-04 0.267619380E-04 0.159790743E-04 0.891155105E-05 0.463250717E-05 0.223958023E-05 0.104076980E-05 0.464218317E-06 0.198388463E-06 0.810735798E-07 0.316109166E-07 0.117296457E-07 0.413019441E-08 0.137553935E-08 0.431695096E-09 0.127127656E-09 0.349583175E-10 0.892636572E-11 0.210274354E-11 0.453494555E-12 0.887362625E-13 0.155826330E-13 0.242318233E-14 0.328127699E-15 0.379129499E-16 0.330206332E-16 0.915633553E-14 0.173105464E-11 0.197584407E-09 0.126506361E-07 0.176404118E-07 0.357255253E-09 0.392860787E-11 0.262073332E-13 0.110163457E-15 0.765608266E-17 0.655382479E-16 0.496657875E-15 0.327979882E-14 0.191942375E-13 0.100890060E-12 0.481533053E-12 0.210594975E-11 0.850433699E-11 0.319184783E-10 0.111969441E-09 0.368923059E-09 0.114658605E-08 0.337395933E-08 0.943124956E-08 0.251165524E-07 0.638896367E-07 0.155585113E-06 0.363449630E-06 0.815878082E-06 0.176271567E-05 0.367027428E-05 0.712021802E-05 0.128938727E-04 0.218330952E-04 0.346223314E-04 0.514847598E-04 0.718684823E-04 0.942422339E-04 0.116124793E-03 0.134420508E-03 0.146034712E-03 0.148627165E-03 0.141286029E-03 0.124889106E-03 0.101999700E-03 0.762814816E-04 0.515875436E-04 0.310002870E-04 0.161472199E-04 0.703263868E-05 0.242674969E-05 0.609383846E-06 0.960725401E-07 0.685868828E-08 0.182915833E-13
0.105706143E-06 0.742300756E-06 0.326164582E-05 0.103594539E-04 0.258957516E-04 0.538479799E-04 0.967089290E-04 0.153997724E-03 0.221537572E-03 0.291842181E-03 0.355537952E-03 0.403402984E-03 0.428432220E-03 0.427355670E-03 0.401221856E-03 0.354938296E-03 0.295958220E-03 0.232527440E-03 0.171996522E-03 0.119626435E-03 0.781122071E-04 0.477978101E-04 0.273539645E-04 0.146086231E-04 0.726384542E-05 0.346689535E-05 0.158604564E-05 0.694354242E-06 0.290350044E-06 0.115719473E-06 0.438502887E-07 0.157546847E-07 0.534982059E-08 0.171075265E-08 0.513041609E-09 0.143603740E-09 0.373107829E-10 0.894075178E-11 0.196115975E-11 0.390267761E-12 0.697000305E-13 0.110245531E-13 0.151878344E-14 0.178404488E-15 0.549007912E-16 0.113553466E-13 0.210696911E-11 0.237621534E-09 0.151000048E-07 0.210165396E-07 0.427249347E-09 0.473446456E-11 0.319708961E-13 0.139484462E-15 0.357502597E-16 0.309103763E-15 0.230294452E-14 0.149562725E-13 0.860972535E-13 0.445203499E-12 0.209042809E-11 0.899334166E-11 0.357190978E-10 0.131816766E-09 0.454502297E-09 0.147122392E-08 0.448964999E-08 0.129635227E-07 0.355305723E-07 0.926984711E-07 0.230785645E-06 0.549483616E-06 0.125353654E-05 0.274458489E-05 0.577562105E-05 0.116960691E-04 0.220907859E-04 0.389906709E-04 0.644275642E-04 0.998280011E-04 0.145251310E-03 0.198691472E-03 0.255735009E-03 0.309833937E-03 0.353292795E-03 0.378830329E-03 0.381334481E-03 0.359310012E-03 0.315530604E-03 0.256619795E-03 0.191585277E-03 0.129682463E-03 0.782222050E-04 0.410266111E-04 0.180586649E-04 0.632596903E-05 0.162164667E-05 0.262833652E-06 0.194536725E-07 0.514492488E-13
0.271963927E-06 0.184827320E-05 0.792414994E-05 0.246991531E-04 0.608618684E-04 0.125211416E-03 0.223181109E-03 0.353702402E-03 0.507729244E-03 0.669062370E-03 0.817285909E-03 0.931973977E-03 0.997022260E-03 0.100397773E-02 0.953571696E-03 0.855148071E-03 0.724239100E-03 0.579009706E-03 0.436554779E-03 0.309991621E-03 0.206962111E-03 0.129665845E-03 0.760736366E-04 0.416992953E-04 0.213041203E-04 0.104330156E-04 0.489089643E-05 0.219142794E-05 0.936806202E-06 0.381297582E-06 0.147416827E-06 0.539918439E-07 0.186753066E-07 0.607898976E-08 0.185463056E-08 0.527855870E-09 0.139396703E-09 0.339409160E-10 0.756304741E-11 0.152870425E-11 0.277302243E-12 0.445516901E-13 0.623513319E-14 0.744019500E-15 0.121040968E-15 0.139776267E-13 0.254581794E-11 0.283639029E-09 0.178811881E-07 0.248410128E-07 0.507222653E-09 0.566621576E-11 0.387388587E-13 0.182536897E-15 0.150693183E-15 0.129162498E-14 0.947509351E-14 0.606028154E-13 0.343628880E-12 0.175029305E-11 0.809506108E-11 0.342988589E-10 0.134132511E-09 0.487237917E-09 0.165297365E-08 0.526200283E-08 0.157823195E-07 0.447580781E-07 0.120393921E-06 0.308001262E-06 0.751189020E-06 0.175023854E-05 0.390284958E-05 0.834222737E-05 0.171151587E-04 0.337422207E-04 0.621067884E-04 0.106944586E-03 0.172605476E-03 0.261563837E-03 0.372728886E-03 0.500098104E-03 0.632377400E-03 0.754022098E-03 0.847749296E-03 0.898069353E-03 0.894953788E-03 0.836618536E-03 0.730518484E-03 0.592123368E-03 0.441624870E-03 0.299382838E-03 0.181336785E-03 0.957859156E-04 0.426046354E-04 0.151420472E-04 0.395820234E-05 0.658411921E-06 0.504085875E-07 0.131860126E-12