<?xml version="1.0"?>
<VTKFile type="StructuredGrid">
<StructuredGrid WholeExtent="     0   100     0   100     0     0">
<Piece Extent="     0   100     0   100     0     0">
<Points>
<DataArray type="Float32" NumberOfComponents="3"/>
0.000000000E+00 0.000000000E+00 0.000000000E+00 0.199999996E-01 0.000000000E+00 0.000000000E+00 0.399999991E-01 0.000000000E+00 0.000000000E+00 0.599999987E-01 0.000000000E+00 0.000000000E+00 0.799999982E-01 0.000000000E+00 0.000000000E+00 0.100000001E+00 0.000000000E+00 0.000000000E+00 0.119999997E+00 0.000000000E+00 0.000000000E+00 0.140000001E+00 0.000000000E+00 0.000000000E+00 0.159999996E+00 0.000000000E+00 0.000000000E+00 0.180000007E+00 0.000000000E+00 0.000000000E+00 0.200000003E+00 0.000000000E+00 0.000000000E+00 0.219999999E+00 0.000000000E+00 0.000000000E+00 0.239999995E+00 0.000000000E+00 0.000000000E+00 0.259999990E+00 0.000000000E+00 0.000000000E+00 0.280000001E+00 0.000000000E+00 0.000000000E+00 0.300000012E+00 0.000000000E+00 0.000000000E+00 0.319999993E+00 0.000000000E+00 0.000000000E+00 0.340000004E+00 0.000000000E+00 0.000000000E+00 0.360000014E+00 0.000000000E+00 0.000000000E+00 0.379999995E+00 0.000000000E+00 0.000000000E+00 0.400000006E+00 0.000000000E+00 0.000000000E+00 0.419999987E+00 0.000000000E+00 0.000000000E+00 0.439999998E+00 0.000000000E+00 0.000000000E+00 0.460000008E+00 0.000000000E+00 0.000000000E+00 0.479999989E+00 0.000000000E+00 0.000000000E+00 0.500000000E+00 0.000000000E+00 0.000000000E+00 0.519999981E+00 0.000000000E+00 0.000000000E+00 0.540000021E+00 0.000000000E+00 0.000000000E+00 0.560000002E+00 0.000000000E+00 0.000000000E+00 0.579999983E+00 0.000000000E+00 0.000000000E+00 0.600000024E+00 0.000000000E+00 0.000000000E+00 0.620000005E+00 0.000000000E+00 0.000000000E+00 0.639999986E+00 0.000000000E+00 0.000000000E+00 0.660000026E+00 0.000000000E+00 0.000000000E+00 0.680000007E+00 0.000000000E+00 0.000000000E+00 0.699999988E+00 0.000000000E+00 0.000000000E+00 0.720000029E+00 0.000000000E+00 0.000000000E+00 0.740000010E+00 0.000000000E+00 0.000000000E+00 0.759999990E+00 0.000000000E+00 0.000000000E+00 0.779999971E+00 0.000000000E+00 0.000000000E+00 0.800000012E+00 0.000000000E+00 0.000000000E+00 0.819999993E+00 0.000000000E+00 0.000000000E+00 0.839999974E+00 0.000000000E+00 0.000000000E+00 0.860000014E+00 0.000000000E+00 0.000000000E+00 0.879999995E+00 0.000000000E+00 0.000000000E+00 0.899999976E+00 0.000000000E+00 0.000000000E+00 0.920000017E+00 0.000000000E+00 0.000000000E+00 0.939999998E+00 0.000000000E+00 0.000000000E+00 0.959999979E+00 0.000000000E+00 0.000000000E+00 0.980000019E+00 0.000000000E+00 0.000000000E+00 0.100000000E+01 0.000000000E+00 0.000000000E+00 0.101999998E+01 0.000000000E+00 0.000000000E+00 0.103999996E+01 0.000000000E+00 0.000000000E+00 0.105999994E+01 0.000000000E+00 0.000000000E+00 0.108000004E+01 0.000000000E+00 0.000000000E+00 0.110000002E+01 0.000000000E+00 0.000000000E+00 0.112000000E+01 0.000000000E+00 0.000000000E+00 0.113999999E+01 0.000000000E+00 0.000000000E+00 0.115999997E+01 0.000000000E+00 0.000000000E+00 0.117999995E+01 0.000000000E+00 0.000000000E+00 0.120000005E+01 0.000000000E+00 0.000000000E+00 0.122000003E+01 0.000000000E+00 0.000000000E+00 0.124000001E+01 0.000000000E+00 0.000000000E+00 0.125999999E+01 0.000000000E+00 0.000000000E+00 0.127999997E+01 0.000000000E+00 0.000000000E+00 0.129999995E+01 0.000000000E+00 0.000000000E+00 0.132000005E+01 0.000000000E+00 0.000000000E+00 0.134000003E+01 0.000000000E+00 0.000000000E+00 0.136000001E+01 0.000000000E+00 0.000000000E+00 0.138000000E+01 0.000000000E+00 0.000000000E+00 0.139999998E+01 0.000000000E+00 0.000000000E+00 0.141999996E+01 0.000000000E+00 0.000000000E+00 0.144000006E+01 0.000000000E+00 0.000000000E+00 0.146000004E+01 0.000000000E+00 0.000000000E+00 0.148000002E+01 0.000000000E+00 0.000000000E+00 0.150000000E+01 0.000000000E+00 0.000000000E+00 0.151999998E+01 0.000000000E+00 0.000000000E+00 0.153999996E+01 0.000000000E+00 0.000000000E+00 0.155999994E+01 0.000000000E+00 0.000000000E+00 0.158000004E+01 0.000000000E+00 0.000000000E+00 0.160000002E+01 0.000000000E+00 0.000000000E+00 0.162000000E+01 0.000000000E+00 0.000000000E+00 0.163999999E+01 0.000000000E+00 0.000000000E+00 0.165999997E+01 0.000000000E+00 0.000000000E+00 0.167999995E+01 0.000000000E+00 0.000000000E+00 0.170000005E+01 0.000000000E+00 0.000000000E+00 0.172000003E+01 0.000000000E+00 0.000000000E+00 0.174000001E+01 0.000000000E+00 0.000000000E+00 0.175999999E+01 0.000000000E+00 0.000000000E+00 0.177999997E+01 0.000000000E+00 0.000000000E+00 0.179999995E+01 0.000000000E+00 0.000000000E+00 0.182000005E+01 0.000000000E+00 0.000000000E+00 0.184000003E+01 0.000000000E+00 0.000000000E+00 0.186000001E+01 0.000000000E+00 0.000000000E+00 0.188000000E+01 0.000000000E+00 0.000000000E+00 0.189999998E+01 0.000000000E+00 0.000000000E+00 0.191999996E+01 0.000000000E+00 0.000000000E+00 0.194000006E+01 0.000000000E+00 0.000000000E+00 0.196000004E+01 0.000000000E+00 0.000000000E+00 0.198000002E+01 0.000000000E+00 0.000000000E+00 0.200000000E+01 0.000000000E+00 0.000000000E+00
0.000000000E+00 0.999999978E-02 0.000000000E+00 0.199999996E-01 0.999999978E-02 0.000000000E+00 0.399999991E-01 0.999999978E-02 0.000000000E+00 0.599999987E-01 0.999999978E-02 0.000000000E+00 0.799999982E-01 0.999999978E-02 0.000000000E+00 0.100000001E+00 0.999999978E-02 0.000000000E+00 0.119999997E+00 0.999999978E-02 0.000000000E+00 0.140000001E+00 0.999999978E-02 0.000000000E+00 0.159999996E+00 0.999999978E-02 0.000000000E+00 0.180000007E+00 0.999999978E-02 0.000000000E+00 0.200000003E+00 0.999999978E-02 0.000000000E+00 0.219999999E+00 0.999999978E-02 0.000000000E+00 0.239999995E+00 0.999999978E-02 0.000000000E+00 0.259999990E+00 0.999999978E-02 0.000000000E+00 0.280000001E+00 0.999999978E-02 0.000000000E+00 0.300000012E+00 0.999999978E-02 0.000000000E+00 0.319999993E+00 0.999999978E-02 0.000000000E+00 0.340000004E+00 0.999999978E-02 0.000000000E+00 0.360000014E+00 0.999999978E-02 0.000000000E+00 0.379999995E+00 0.999999978E-02 0.000000000E+00 0.400000006E+00 0.999999978E-02 0.000000000E+00 0.419999987E+00 0.999999978E-02 0.000000000E+00 0.439999998E+00 0.999999978E-02 0.000000000E+00 0.460000008E+00 0.999999978E-02 0.000000000E+00 0.479999989E+00 0.999999978E-02 0.000000000E+00 0.500000000E+00 0.999999978E-02 0.000000000E+00 0.519999981E+00 0.999999978E-02 0.000000000E+00 0.540000021E+00 0.999999978E-02 0.000000000E+00 0.560000002E+00 0.999999978E-02 0.000000000E+00 0.579999983E+00 0.999999978E-02 0.000000000E+00 0.600000024E+00 0.999999978E-02 0.000000000E+00 0.620000005E+00 0.999999978E-02 0.000000000E+00 0.639999986E+00 0.999999978E-02 0.000000000E+00 0.660000026E+00 0.999999978E-02 0.000000000E+00 0.680000007E+00 0.999999978E-02 0.000000000E+00 0.699999988E+00 0.999999978E-02 0.000000000E+00 0.720000029E+00 0.999999978E-02 0.000000000E+00 0.740000010E+00 0.999999978E-02 0.000000000E+00 0.759999990E+00 0.999999978E-02 0.000000000E+00 0.779999971E+00 0.999999978E-02 0.000000000E+00 0.800000012E+00 0.999999978E-02 0.000000000E+00 0.819999993E+00 0.999999978E-02 0.000000000E+00 0.839999974E+00 0.999999978E-02 0.000000000E+00 0.860000014E+00 0.999999978E-02 0.000000000E+00 0.879999995E+00 0.999999978E-02 0.000000000E+00 0.899999976E+00 0.999999978E-02 0.000000000E+00 0.920000017E+00 0.999999978E-02 0.000000000E+00 0.939999998E+00 0.999999978E-02 0.000000000E+00 0.959999979E+00 0.999999978E-02 0.000000000E+00 0.980000019E+00 0.999999978E-02 0.000000000E+00 0.100000000E+01 0.999999978E-02 0.000000000E+00 0.101999998E+01 0.999999978E-02 0.000000000E+00 0.103999996E+01 0.999999978E-02 0.000000000E+00 0.105999994E+01 0.999999978E-02 0.000000000E+00 0.108000004E+01 0.999999978E-02 0.000000000E+00 0.110000002E+01 0.999999978E-02 0.000000000E+00 0.112000000E+01 0.999999978E-02 0.000000000E+00 0.113999999E+01 0.999999978E-02 0.000000000E+00 0.115999997E+01 0.999999978E-02 0.000000000E+00 0.117999995E+01 0.999999978E-02 0.000000000E+00 0.120000005E+01 0.999999978E-02 0.000000000E+00 0.122000003E+01 0.999999978E-02 0.000000000E+00 0.124000001E+01 0.999999978E-02 0.000000000E+00 0.125999999E+01 0.999999978E-02 0.000000000E+00 0.127999997E+01 0.999999978E-02 0.000000000E+00 0.129999995E+01 0.999999978E-02 0.000000000E+00 0.132000005E+01 0.999999978E-02 0.000000000E+00 0.134000003E+01 0.999999978E-02 0.000000000E+00 0.136000001E+01 0.999999978E-02 0.000000000E+00 0.138000000E+01 0.999999978E-02 0.000000000E+00 0.139999998E+01 0.999999978E-02 0.000000000E+00 0.141999996E+01 0.999999978E-02 0.000000000E+00 0.144000006E+01 0.999999978E-02 0.000000000E+00 0.146000004E+01 0.999999978E-02 0.000000000E+00 0.148000002E+01 0.999999978E-02 0.000000000E+00 0.150000000E+01 0.999999978E-02 0.000000000E+00 0.151999998E+01 0.999999978E-02 0.000000000E+00 0.153999996E+01 0.999999978E-02 0.000000000E+00 0.155999994E+01 0.999999978E-02 0.000000000E+00 0.158000004E+01 0.999999978E-02 0.000000000E+00 0.160000002E+01 0.999999978E-02 0.000000000E+00 0.162000000E+01 0.999999978E-02 0.000000000E+00 0.163999999E+01 0.999999978E-02 0.000000000E+00 0.165999997E+01 0.999999978E-02 0.000000000E+00 0.167999995E+01 0.999999978E-02 0.000000000E+00 0.170000005E+01 0.999999978E-02 0.000000000E+00 0.172000003E+01 0.999999978E-02 0.000000000E+00 0.174000001E+01 0.999999978E-02 0.000000000E+00 0.175999999E+01 0.999999978E-02 0.000000000E+00 0.177999997E+01 0.999999978E-02 0.000000000E+00 0.179999995E+01 0.999999978E-02 0.000000000E+00 0.182000005E+01 0.999999978E-02 0.000000000E+00 0.184000003E+01 0.999999978E-02 0.000000000E+00 0.186000001E+01 0.999999978E-02 0.000000000E+00 0.188000000E+01 0.999999978E-02 0.000000000E+00 0.189999998E+01 0.999999978E-02 0.000000000E+00 0.191999996E+01 0.999999978E-02 0.000000000E+00 0.194000006E+01 0.999999978E-02 0.000000000E+00 0.196000004E+01 0.999999978E-02 0.000000000E+00 0.198000002E+01 0.999999978E-02 0.000000000E+00 0.200000000E+01 0.999999978E-02 0.000000000E+00
[...]
<CellData Scalars="Temperature, U, V">
<DataArray type="Float32" Name="Temp, K"/>
0.000000000E+00 0.000000000E+00 0.000000000E+00 0.000000000E+00 0.000000000E+00 0.000000000E+00 0.000000000E+00 0.000000000E+00 0.000000000E+00 0.000000000E+00 0.000000000E+00 0.000000000E+00 0.000000000E+00 0.000000000E+00 0.000000000E+00 0.000000000E+00 0.000000000E+00 0.000000000E+00 0.000000000E+00 0.000000000E+00 0.000000000E+00 0.000000000E+00 0.000000000E+00 0.000000000E+00 0.000000000E+00 0.000000000E+00 0.000000000E+00 0.000000000E+00 0.000000000E+00 0.000000000E+00 0.000000000E+00 0.000000000E+00 0.000000000E+00 0.000000000E+00 0.000000000E+00 0.000000000E+00 0.000000000E+00 0.238220739E-43 0.742688186E-43 0.113307032E-36 0.115567916E-30 0.846914720E-25 0.346567189E-19 0.335804930E-17 0.379773524E-12 0.174917129E-10 0.394379140E-09 0.514661025E-08 0.386136847E-07 0.527957837E-07 0.967269109E-08 0.100063235E-08 0.630430708E-10 0.234564581E-11 0.414884530E-13 0.395219245E-18 0.360354408E-20 0.899888687E-26 0.125599485E-31 0.126532515E-37 0.756701171E-43 0.154142831E-43 0.000000000E+00 0.000000000E+00 0.000000000E+00 0.000000000E+00 0.000000000E+00 0.000000000E+00 0.000000000E+00 0.000000000E+00 0.000000000E+00 0.000000000E+00 0.000000000E+00 0.000000000E+00 0.000000000E+00 0.000000000E+00 0.000000000E+00 0.000000000E+00 0.000000000E+00 0.000000000E+00 0.000000000E+00 0.000000000E+00 0.000000000E+00 0.000000000E+00 0.000000000E+00 0.000000000E+00 0.000000000E+00 0.000000000E+00 0.000000000E+00 0.000000000E+00 0.000000000E+00 0.000000000E+00 0.000000000E+00 0.000000000E+00 0.000000000E+00 0.000000000E+00 0.000000000E+00 0.000000000E+00 0.000000000E+00 0.000000000E+00
0.000000000E+00 0.000000000E+00 0.000000000E+00 0.000000000E+00 0.000000000E+00 0.000000000E+00 0.000000000E+00 0.000000000E+00 0.000000000E+00 0.000000000E+00 0.000000000E+00 0.000000000E+00 0.000000000E+00 0.000000000E+00 0.000000000E+00 0.000000000E+00 0.000000000E+00 0.000000000E+00 0.000000000E+00 0.000000000E+00 0.000000000E+00 0.000000000E+00 0.000000000E+00 0.000000000E+00 0.000000000E+00 0.000000000E+00 0.000000000E+00 0.000000000E+00 0.000000000E+00 0.000000000E+00 0.000000000E+00 0.000000000E+00 0.000000000E+00 0.000000000E+00 0.000000000E+00 0.000000000E+00 0.126116862E-43 0.546506401E-43 0.424271556E-38 0.447928551E-32 0.356408281E-26 0.194939914E-20 0.596067461E-15 0.507131263E-13 0.273158948E-11 0.823277210E-10 0.155080671E-08 0.185391347E-07 0.133820194E-06 0.182171391E-06 0.336411468E-07 0.364414765E-08 0.253054966E-09 0.114753311E-10 0.328707791E-12 0.548755462E-14 0.562662017E-16 0.187044739E-21 0.348837383E-27 0.450955678E-33 0.443077963E-39 0.560519386E-43 0.980908925E-44 0.000000000E+00 0.000000000E+00 0.000000000E+00 0.000000000E+00 0.000000000E+00 0.000000000E+00 0.000000000E+00 0.000000000E+00 0.000000000E+00 0.000000000E+00 0.000000000E+00 0.000000000E+00 0.000000000E+00 0.000000000E+00 0.000000000E+00 0.000000000E+00 0.000000000E+00 0.000000000E+00 0.000000000E+00 0.000000000E+00 0.000000000E+00 0.000000000E+00 0.000000000E+00 0.000000000E+00 0.000000000E+00 0.000000000E+00 0.000000000E+00 0.000000000E+00 0.000000000E+00 0.000000000E+00 0.000000000E+00 0.000000000E+00 0.000000000E+00 0.000000000E+00 0.000000000E+00 0.000000000E+00 0.000000000E+00
0.000000000E+00 0.000000000E+00 0.000000000E+00 0.000000000E+00 0.000000000E+00 0.000000000E+00 0.000000000E+00 0.000000000E+00 0.000000000E+00 0.000000000E+00 0.000000000E+00 0.000000000E+00 0.000000000E+00 0.000000000E+00 0.000000000E+00 0.210194770E-42 0.909442703E-42 0.111823617E-41 0.489053164E-42 0.700649232E-43 0.000000000E+00 0.000000000E+00 0.000000000E+00 0.000000000E+00 0.000000000E+00 0.000000000E+00 0.000000000E+00 0.000000000E+00 0.000000000E+00 0.000000000E+00 0.000000000E+00 0.000000000E+00 0.000000000E+00 0.000000000E+00 0.000000000E+00 0.420389539E-44 0.546506401E-43 0.131984098E-39 0.138850001E-33 0.110271791E-27 0.575822454E-22 0.143884544E-16 0.340098996E-14 0.236114974E-12 0.975470052E-11 0.253385812E-09 0.436389103E-08 0.494739254E-07 0.347359020E-06 0.469232901E-06 0.872615971E-07 0.973498793E-08 0.714383386E-09 0.355517039E-10 0.118917799E-11 0.254686341E-13 0.322378410E-15 0.122234247E-17 0.501277166E-23 0.993295510E-29 0.130460645E-34 0.130685095E-40 0.280259693E-43 0.000000000E+00 0.000000000E+00 0.000000000E+00 0.000000000E+00 0.000000000E+00 0.000000000E+00 0.000000000E+00 0.000000000E+00 0.000000000E+00 0.000000000E+00 0.000000000E+00 0.000000000E+00 0.000000000E+00 0.000000000E+00 0.000000000E+00 0.000000000E+00 0.700649232E-43 0.418988241E-42 0.104817125E-41 0.839377780E-42 0.140129846E-42 0.000000000E+00 0.000000000E+00 0.000000000E+00 0.000000000E+00 0.000000000E+00 0.000000000E+00 0.000000000E+00 0.000000000E+00 0.000000000E+00 0.000000000E+00 0.000000000E+00 0.000000000E+00 0.000000000E+00 0.000000000E+00 0.000000000E+00 0.000000000E+00
0.000000000E+00 0.000000000E+00 0.000000000E+00 0.000000000E+00 0.000000000E+00 0.000000000E+00 0.000000000E+00 0.000000000E+00 0.000000000E+00 0.000000000E+00 0.000000000E+00 0.000000000E+00 0.000000000E+00 0.280259693E-42 0.650062358E-41 0.703802154E-40 0.244336005E-39 0.261391209E-39 0.111476095E-39 0.255793022E-40 0.356490329E-41 0.280259693E-42 0.000000000E+00 0.000000000E+00 0.000000000E+00 0.000000000E+00 0.000000000E+00 0.000000000E+00 0.000000000E+00 0.000000000E+00 0.000000000E+00 0.000000000E+00 0.000000000E+00 0.000000000E+00 0.000000000E+00 0.966895940E-43 0.358171887E-41 0.363036981E-35 0.286609992E-29 0.155339314E-23 0.426869735E-18 0.108324675E-15 0.129493855E-13 0.748068816E-12 0.269688785E-10 0.643273101E-09 0.104671392E-07 0.114332138E-06 0.785075940E-06 0.105142772E-05 0.196934067E-06 0.224498748E-07 0.170950187E-08 0.900978736E-10 0.328956827E-11 0.804921654E-13 0.123159808E-14 0.924517271E-17 0.329671218E-19 0.124822299E-24 0.241603257E-30 0.323607146E-36 0.358732407E-42 0.742688186E-43 0.000000000E+00 0.000000000E+00 0.000000000E+00 0.000000000E+00 0.000000000E+00 0.000000000E+00 0.000000000E+00 0.000000000E+00 0.000000000E+00 0.000000000E+00 0.000000000E+00 0.000000000E+00 0.000000000E+00 0.280259693E-42 0.328604490E-41 0.236244908E-40 0.103647041E-39 0.240911232E-39 0.218896833E-39 0.607350780E-40 0.538238740E-41 0.210194770E-42 0.000000000E+00 0.000000000E+00 0.000000000E+00 0.000000000E+00 0.000000000E+00 0.000000000E+00 0.000000000E+00 0.000000000E+00 0.000000000E+00 0.000000000E+00 0.000000000E+00 0.000000000E+00 0.000000000E+00 0.000000000E+00
0.000000000E+00 0.000000000E+00 0.000000000E+00 0.000000000E+00 0.000000000E+00 0.000000000E+00 0.000000000E+00 0.000000000E+00 0.000000000E+00 0.000000000E+00 0.000000000E+00 0.000000000E+00 0.195761395E-41 0.777174141E-40 0.204289418E-38 0.178376228E-37 0.457863595E-37 0.415600294E-37 0.172256758E-37 0.407957500E-38 0.621114334E-39 0.646475034E-40 0.475180309E-41 0.210194770E-42 0.000000000E+00 0.000000000E+00 0.000000000E+00 0.000000000E+00 0.000000000E+00 0.000000000E+00 0.000000000E+00 0.000000000E+00 0.000000000E+00 0.000000000E+00 0.882818033E-43 0.135925951E-42 0.843645126E-37 0.616629248E-31 0.316898522E-25 0.858273960E-20 0.322332887E-17 0.467201880E-15 0.396337931E-13 0.197657255E-11 0.647812359E-10 0.145335866E-08 0.226628600E-07 0.240255588E-06 0.161735170E-05 0.214766510E-05 0.405468143E-06 0.470713282E-07 0.368866493E-08 0.202797348E-09 0.788224434E-11 0.212226897E-12 0.377785461E-14 0.400293543E-16 0.250476519E-18 0.612347207E-21 0.238962050E-26 0.495576994E-32 0.729031552E-38 0.868805048E-43 0.868805048E-43 0.000000000E+00 0.000000000E+00 0.000000000E+00 0.000000000E+00 0.000000000E+00 0.000000000E+00 0.000000000E+00 0.000000000E+00 0.000000000E+00 0.000000000E+00 0.210194770E-42 0.440287977E-41 0.591964523E-40 0.571005302E-39 0.377121647E-38 0.159652709E-37 0.383032800E-37 0.411585714E-37 0.153887332E-37 0.168219014E-38 0.610840014E-40 0.139849587E-41 0.000000000E+00 0.000000000E+00 0.000000000E+00 0.000000000E+00 0.000000000E+00 0.000000000E+00 0.000000000E+00 0.000000000E+00 0.000000000E+00 0.000000000E+00 0.000000000E+00 0.000000000E+00 0.000000000E+00
0.000000000E+00 0.000000000E+00 0.000000000E+00 0.000000000E+00 0.000000000E+00 0.000000000E+00 0.000000000E+00 0.000000000E+00 0.000000000E+00 0.000000000E+00 0.000000000E+00 0.629042881E-41 0.402846684E-39 0.254283991E-37 0.528511083E-36 0.304115828E-35 0.596479619E-35 0.480310766E-35 0.195742230E-35 0.478655440E-36 0.776304552E-37 0.884323027E-38 0.729724774E-39 0.441717302E-40 0.195761395E-41 0.700649232E-43 0.000000000E+00 0.000000000E+00 0.000000000E+00 0.000000000E+00 0.000000000E+00 0.000000000E+00 0.000000000E+00 0.238220739E-43 0.476441478E-43 0.195184201E-38 0.126521561E-32 0.580029095E-27 0.140630865E-21 0.708739335E-19 0.143166683E-16 0.153190451E-14 0.104945370E-12 0.466074922E-11 0.141755538E-09 0.302639802E-08 0.455365061E-07 0.470143590E-06 0.310549262E-05 0.409041513E-05 0.779243067E-06 0.920104029E-07 0.739132844E-08 0.420797786E-09 0.171983122E-10 0.499543061E-12 0.100181865E-13 0.131698019E-15 0.111886269E-17 0.509750537E-20 0.948720333E-23 0.420956045E-28 0.997162445E-34 0.168667290E-39 0.364337601E-43 0.308285662E-43 0.000000000E+00 0.000000000E+00 0.000000000E+00 0.000000000E+00 0.000000000E+00 0.000000000E+00 0.000000000E+00 0.000000000E+00 0.174741919E-41 0.401878387E-40 0.664307958E-39 0.807555413E-38 0.712345814E-37 0.441399734E-36 0.180969056E-35 0.442016153E-35 0.537418454E-35 0.263482245E-35 0.435455583E-36 0.198784809E-37 0.299968956E-39 0.426274993E-41 0.000000000E+00 0.000000000E+00 0.000000000E+00 0.000000000E+00 0.000000000E+00 0.000000000E+00 0.000000000E+00 0.000000000E+00 0.000000000E+00 0.000000000E+00 0.000000000E+00 0.000000000E+00
0.000000000E+00 0.000000000E+00 0.000000000E+00 0.000000000E+00 0.000000000E+00 0.000000000E+00 0.000000000E+00 0.000000000E+00 0.000000000E+00 0.000000000E+00 0.103443853E-40 0.100725894E-38 0.152846204E-36 0.719408426E-35 0.863042213E-34 0.347752578E-33 0.558913126E-33 0.415824193E-33 0.168870933E-33 0.427541128E-34 0.734938598E-35 0.904698557E-36 0.823176360E-37 0.562477840E-38 0.289696037E-39 0.132787042E-40 0.559118087E-42 0.000000000E+00 0.000000000E+00 0.000000000E+00 0.000000000E+00 0.000000000E+00 0.364337601E-43 0.574532370E-43 0.493229033E-40 0.271512075E-34 0.109270509E-28 0.234913765E-23 0.132269815E-20 0.341907145E-18 0.488217879E-16 0.425243320E-14 0.250571102E-12 0.101356354E-10 0.289680613E-09 0.592416383E-08 0.863199290E-07 0.869335736E-06 0.563525782E-05 0.736607535E-05 0.141762916E-05 0.170212999E-06 0.139917331E-07 0.821656188E-09 0.350635493E-10 0.108498161E-11 0.239492535E-13 0.366749543E-15 0.383661754E-17 0.247936257E-19 0.902324410E-22 0.154639454E-24 0.789757666E-30 0.217673730E-35 0.446453691E-41 0.784727140E-43 0.560519386E-43 0.000000000E+00 0.000000000E+00 0.000000000E+00 0.000000000E+00 0.000000000E+00 0.489053164E-42 0.121604681E-40 0.263906540E-39 0.510989511E-38 0.748193103E-37 0.824722126E-36 0.672947700E-35 0.393276042E-34 0.155723798E-33 0.381970576E-33 0.504281199E-33 0.302758879E-33 0.715059126E-34 0.562549955E-35 0.112660069E-36 0.705263708E-39 0.656928720E-41 0.000000000E+00 0.000000000E+00 0.000000000E+00 0.000000000E+00 0.000000000E+00 0.000000000E+00 0.000000000E+00 0.000000000E+00 0.000000000E+00 0.000000000E+00 0.000000000E+00
0.000000000E+00 0.000000000E+00 0.000000000E+00 0.000000000E+00 0.000000000E+00 0.000000000E+00 0.000000000E+00 0.000000000E+00 0.000000000E+00 0.922614909E-41 0.131952850E-38 0.480331931E-36 0.490292093E-34 0.115639826E-32 0.899281243E-32 0.278958504E-31 0.389665328E-31 0.276082716E-31 0.113051281E-31 0.297650304E-32 0.542059383E-33 0.716830345E-34 0.710474985E-35 0.537681494E-36 0.313074572E-37 0.165339486E-38 0.775772843E-40 0.321597998E-41 0.700649232E-43 0.000000000E+00 0.000000000E+00 0.406376555E-43 0.630584309E-43 0.151059974E-41 0.678257514E-36 0.216592263E-30 0.402349353E-25 0.248431926E-22 0.713918342E-20 0.125898926E-17 0.141500996E-15 0.105503680E-13 0.553864409E-12 0.207286306E-10 0.561308389E-09 0.110403926E-07 0.156088689E-06 0.153443443E-05 0.975886269E-05 0.126650884E-04 0.246524019E-05 0.301072674E-06 0.253055852E-07 0.152954849E-08 0.678513704E-10 0.221768675E-11 0.530089685E-13 0.912862760E-15 0.111819624E-16 0.920661263E-19 0.492664007E-21 0.165996924E-23 0.269020269E-26 0.162623061E-31 0.582139291E-37 0.140129846E-42 0.742688186E-43 0.448415509E-43 0.000000000E+00 0.000000000E+00 0.700649232E-43 0.300578521E-41 0.717072450E-40 0.151298616E-38 0.284699062E-37 0.487746167E-36 0.644762813E-35 0.652258684E-34 0.495253127E-33 0.273130355E-32 0.103996279E-31 0.253149703E-31 0.351834158E-31 0.243913461E-31 0.750149140E-32 0.910277571E-33 0.361610818E-34 0.331506994E-36 0.861607979E-39 0.545105103E-41 0.000000000E+00 0.000000000E+00 0.000000000E+00 0.000000000E+00 0.000000000E+00 0.000000000E+00 0.000000000E+00 0.000000000E+00 0.000000000E+00 0.000000000E+00
0.000000000E+00 0.000000000E+00 0.000000000E+00 0.000000000E+00 0.000000000E+00 0.000000000E+00 0.000000000E+00 0.000000000E+00 0.475320439E-41 0.965675409E-39 0.835626515E-36 0.178584121E-33 0.793910003E-32 0.112998520E-30 0.642315034E-30 0.164651757E-29 0.208441498E-29 0.143601719E-29 0.598048973E-30 0.164354035E-30 0.317410540E-31 0.450078310E-32 0.482966869E-33 0.400107426E-34 0.258743120E-35 0.153955842E-36 0.829297820E-38 0.396280199E-39 0.164946842E-40 0.559118087E-42 0.294272678E-43 0.196181785E-43 0.602558340E-43 0.232990911E-37 0.601652796E-32 0.733658986E-27 0.480468997E-24 0.149289718E-21 0.290484085E-19 0.392138370E-17 0.367110961E-15 0.241449266E-13 0.115374225E-11 0.403879291E-10 0.104202880E-08 0.197633145E-07 0.271405497E-06 0.260483489E-05 0.162470606E-04 0.209435239E-04 0.412772988E-05 0.513009638E-06 0.440808670E-07 0.273905942E-08 0.125942631E-09 0.432226260E-11 0.110613958E-12 0.209643894E-14 0.291793818E-16 0.289254203E-18 0.202844679E-20 0.101285583E-22 0.327244987E-25 0.522678308E-28 0.498925858E-33 0.223968693E-38 0.756701171E-43 0.742688186E-43 0.238220739E-43 0.559118087E-42 0.155852415E-40 0.370769561E-39 0.765208594E-38 0.140664593E-36 0.234975107E-35 0.362448301E-34 0.437600042E-33 0.408779005E-32 0.289406004E-31 0.150486552E-30 0.548973776E-30 0.131461674E-29 0.188261420E-29 0.144465848E-29 0.539210308E-30 0.896545016E-31 0.589731630E-32 0.123386786E-33 0.535856533E-36 0.582254926E-39 0.258539567E-41 0.000000000E+00 0.000000000E+00 0.000000000E+00 0.000000000E+00 0.000000000E+00 0.000000000E+00 0.000000000E+00 0.000000000E+00 0.000000000E+00
0.000000000E+00 0.000000000E+00 0.000000000E+00 0.000000000E+00 0.000000000E+00 0.000000000E+00 0.000000000E+00 0.146715949E-41 0.414938488E-39 0.841578424E-36 0.366430471E-33 0.298467067E-31 0.747223297E-30 0.742138447E-29 0.334384531E-28 0.743984511E-28 0.878579268E-28 0.596849542E-28 0.254229554E-28 0.730789904E-29 0.149747683E-29 0.227518154E-30 0.263615276E-31 0.237589100E-32 0.168732457E-33 0.111227975E-34 0.672829086E-36 0.367665068E-37 0.177933796E-38 0.745518809E-40 0.258819826E-41 0.208793471E-42 0.711967520E-39 0.203754750E-33 0.316612742E-28 0.111109256E-25 0.327632945E-23 0.672453157E-21 0.991201481E-19 0.108924855E-16 0.879071968E-15 0.520059324E-13 0.229352409E-11 0.756686658E-10 0.186732185E-08 0.342075595E-07 0.456558126E-06 0.427767282E-05 0.261531495E-04 0.334981451E-04 0.669201245E-05 0.846925900E-06 0.744044613E-07 0.474985162E-08 0.225945110E-09 0.810828488E-11 0.220404329E-12 0.453331229E-14 0.703038471E-16 0.810736727E-18 0.700654452E-20 0.463479164E-22 0.227741062E-24 0.815171708E-27 0.253438388E-29 0.188733639E-34 0.770027519E-40 0.147136339E-42 0.274794629E-41 0.724149007E-40 0.169141629E-38 0.343385863E-37 0.619955113E-36 0.101499116E-34 0.153041306E-33 0.214928067E-32 0.238480973E-31 0.206291641E-30 0.136293182E-29 0.667910097E-29 0.232954137E-28 0.545643398E-28 0.793562522E-28 0.654523560E-28 0.282257070E-28 0.593304687E-29 0.559734675E-30 0.207677364E-31 0.235300197E-33 0.496924426E-36 0.228260309E-39 0.699247934E-42 0.000000000E+00 0.000000000E+00 0.000000000E+00 0.000000000E+00 0.000000000E+00 0.000000000E+00 0.000000000E+00 0.000000000E+00
0.000000000E+00 0.000000000E+00 0.000000000E+00 0.000000000E+00 0.000000000E+00 0.000000000E+00 0.280259693E-42 0.108679104E-39 0.508876537E-36 0.442167710E-33 0.648045040E-31 0.277519659E-29 0.463967237E-28 0.352204631E-27 0.132878988E-26 0.265577246E-26 0.298483146E-26 0.201837766E-26 0.882270433E-27 0.265429065E-27 0.576769375E-28 0.937946465E-29 0.117140692E-29 0.114486250E-30 0.887335649E-32 0.641119624E-33 0.428608658E-34 0.262205390E-35 0.144567501E-36 0.704782502E-38 0.297349929E-39 0.106694865E-40 0.116996791E-37 0.304776298E-32 0.441596573E-27 0.906672536E-25 0.167419145E-22 0.253166947E-20 0.299863415E-18 0.278475945E-16 0.198173035E-14 0.106879715E-12 0.439113546E-11 0.137267558E-09 0.324865468E-08 0.575427030E-07 0.746584874E-06 0.682706559E-05 0.408910309E-04 0.520572139E-04 0.105519748E-04 0.136080496E-05 0.122267053E-06 0.801689559E-08 0.394047905E-09 0.147433402E-10 0.423289659E-12 0.935869593E-14 0.159544479E-15 0.209236990E-17 0.214664662E-19 0.177380019E-21 0.118893783E-23 0.682278941E-26 0.359463389E-28 0.287870347E-33 0.129756735E-38 0.109147137E-40 0.295992071E-39 0.683418586E-38 0.137193095E-36 0.244564222E-35 0.394468727E-34 0.584374792E-33 0.803832131E-32 0.103429785E-30 0.105825656E-29 0.849247536E-29 0.524205631E-28 0.242243228E-27 0.807296533E-27 0.184312613E-26 0.269578924E-26 0.234120878E-26 0.112683253E-26 0.283503821E-27 0.350425933E-28 0.194740500E-29 0.418886472E-31 0.261454716E-33 0.273651864E-36 0.538154662E-40 0.140129846E-42 0.000000000E+00 0.000000000E+00 0.000000000E+00 0.000000000E+00 0.000000000E+00 0.000000000E+00 0.000000000E+00
0.000000000E+00 0.000000000E+00 0.000000000E+00 0.000000000E+00 0.000000000E+00 0.000000000E+00 0.178231152E-40 0.190252432E-36 0.324912539E-33 0.847497044E-31 0.609472267E-29 0.166929918E-27 0.206232584E-26 0.127117316E-25 0.417312627E-25 0.767924414E-25 0.833189773E-25 0.564432751E-25 0.253649272E-25 0.798272925E-26 0.183667426E-26 0.319084029E-27 0.428673126E-28 0.453223903E-29 0.381967039E-30 0.300620955E-31 0.219842570E-32 0.148281771E-33 0.912533237E-35 0.504884205E-36 0.246583632E-37 0.118652005E-38 0.255756777E-34 0.248262583E-29 0.354228283E-26 0.535851470E-24 0.712968952E-22 0.843319601E-20 0.831689471E-18 0.668928587E-16 0.426375040E-14 0.211642458E-12 0.815334952E-11 0.242396547E-09 0.551168133E-08 0.944561833E-07 0.119134427E-05 0.106287398E-04 0.623298256E-04 0.788896723E-04 0.162410233E-04 0.213580915E-05 0.196345084E-06 0.132229285E-07 0.671067479E-09 0.261250847E-10 0.789079197E-12 0.186287092E-13 0.345750643E-15 0.507633794E-17 0.603290286E-19 0.601078183E-21 0.517608085E-23 0.412974600E-25 0.294039067E-27 0.227741310E-30 0.281976586E-35 0.108615625E-38 0.244938059E-37 0.488778330E-36 0.864881448E-35 0.138153968E-33 0.202118595E-32 0.273714741E-31 0.345629311E-30 0.408991423E-29 0.386844425E-28 0.288607897E-27 0.166757742E-26 0.727775492E-26 0.231845588E-25 0.514957768E-25 0.752405054E-25 0.678024654E-25 0.355243109E-25 0.102938498E-25 0.156962809E-26 0.118136170E-27 0.397192357E-29 0.504075899E-31 0.174950799E-33 0.919280715E-37 0.775758830E-41 0.000000000E+00 0.000000000E+00 0.000000000E+00 0.000000000E+00 0.000000000E+00 0.000000000E+00 0.000000000E+00