<?xml version="1.0"?>
<VTKFile type="StructuredGrid">
<StructuredGrid WholeExtent="     0   100     0   100     0     0">
<Piece Extent="     0   100     0   100     0     0">
<Points>
<DataArray type="Float32" NumberOfComponents="3"/>
0.000000000E+00 0.000000000E+00 0.000000000E+00 0.199999996E-01 0.000000000E+00 0.000000000E+00 0.399999991E-01 0.000000000E+00 0.000000000E+00 0.599999987E-01 0.000000000E+00 0.000000000E+00 0.799999982E-01 0.000000000E+00 0.000000000E+00 0.100000001E+00 0.000000000E+00 0.000000000E+00 0.119999997E+00 0.000000000E+00 0.000000000E+00 0.140000001E+00 0.000000000E+00 0.000000000E+00 0.159999996E+00 0.000000000E+00 0.000000000E+00 0.180000007E+00 0.000000000E+00 0.000000000E+00 0.200000003E+00 0.000000000E+00 0.000000000E+00 0.219999999E+00 0.000000000E+00 0.000000000E+00 0.239999995E+00 0.000000000E+00 0.000000000E+00 0.259999990E+00 0.000000000E+00 0.000000000E+00 0.280000001E+00 0.000000000E+00 0.000000000E+00 0.300000012E+00 0.000000000E+00 0.000000000E+00 0.319999993E+00 0.000000000E+00 0.000000000E+00 0.340000004E+00 0.000000000E+00 0.000000000E+00 0.360000014E+00 0.000000000E+00 0.000000000E+00 0.379999995E+00 0.000000000E+00 0.000000000E+00 0.400000006E+00 0.000000000E+00 0.000000000E+00 0.419999987E+00 0.000000000E+00 0.000000000E+00 0.439999998E+00 0.000000000E+00 0.000000000E+00 0.460000008E+00 0.000000000E+00 0.000000000E+00 0.479999989E+00 0.000000000E+00 0.000000000E+00 0.500000000E+00 0.000000000E+00 0.000000000E+00 0.519999981E+00 0.000000000E+00 0.000000000E+00 0.540000021E+00 0.000000000E+00 0.000000000E+00 0.560000002E+00 0.000000000E+00 0.000000000E+00 0.579999983E+00 0.000000000E+00 0.000000000E+00 0.600000024E+00 0.000000000E+00 0.000000000E+00 0.620000005E+00 0.000000000E+00 0.000000000E+00 0.639999986E+00 0.000000000E+00 0.000000000E+00 0.660000026E+00 0.000000000E+00 0.000000000E+00 0.680000007E+00 0.000000000E+00 0.000000000E+00 0.699999988E+00 0.000000000E+00 0.000000000E+00 0.720000029E+00 0.000000000E+00 0.000000000E+00 0.740000010E+00 0.000000000E+00 0.000000000E+00 0.759999990E+00 0.000000000E+00 0.000000000E+00 0.779999971E+00 0.000000000E+00 0.000000000E+00 0.800000012E+00 0.000000000E+00 0.000000000E+00 0.819999993E+00 0.000000000E+00 0.000000000E+00 0.839999974E+00 0.000000000E+00 0.000000000E+00 0.860000014E+00 0.000000000E+00 0.000000000E+00 0.879999995E+00 0.000000000E+00 0.000000000E+00 0.899999976E+00 0.000000000E+00 0.000000000E+00 0.920000017E+00 0.000000000E+00 0.000000000E+00 0.939999998E+00 0.000000000E+00 0.000000000E+00 0.959999979E+00 0.000000000E+00 0.000000000E+00 0.980000019E+00 0.000000000E+00 0.000000000E+00 0.100000000E+01 0.000000000E+00 0.000000000E+00 0.101999998E+01 0.000000000E+00 0.000000000E+00 0.103999996E+01 0.000000000E+00 0.000000000E+00 0.105999994E+01 0.000000000E+00 0.000000000E+00 0.108000004E+01 0.000000000E+00 0.000000000E+00 0.110000002E+01 0.000000000E+00 0.000000000E+00 0.112000000E+01 0.000000000E+00 0.000000000E+00 0.113999999E+01 0.000000000E+00 0.000000000E+00 0.115999997E+01 0.000000000E+00 0.000000000E+00 0.117999995E+01 0.000000000E+00 0.000000000E+00 0.120000005E+01 0.000000000E+00 0.000000000E+00 0.122000003E+01 0.000000000E+00 0.000000000E+00 0.124000001E+01 0.000000000E+00 0.000000000E+00 0.125999999E+01 0.000000000E+00 0.000000000E+00 0.127999997E+01 0.000000000E+00 0.000000000E+00 0.129999995E+01 0.000000000E+00 0.000000000E+00 0.132000005E+01 0.000000000E+00 0.000000000E+00 0.134000003E+01 0.000000000E+00 0.000000000E+00 0.136000001E+01 0.000000000E+00 0.000000000E+00 0.138000000E+01 0.000000000E+00 0.000000000E+00 0.139999998E+01 0.000000000E+00 0.000000000E+00 0.141999996E+01 0.000000000E+00 0.000000000E+00 0.144000006E+01 0.000000000E+00 0.000000000E+00 0.146000004E+01 0.000000000E+00 0.000000000E+00 0.148000002E+01 0.000000000E+00 0.000000000E+00 0.150000000E+01 0.000000000E+00 0.000000000E+00 0.151999998E+01 0.000000000E+00 0.000000000E+00 0.153999996E+01 0.000000000E+00 0.000000000E+00 0.155999994E+01 0.000000000E+00 0.000000000E+00 0.158000004E+01 0.000000000E+00 0.000000000E+00 0.160000002E+01 0.000000000E+00 0.000000000E+00 0.162000000E+01 0.000000000E+00 0.000000000E+00 0.163999999E+01 0.000000000E+00 0.000000000E+00 0.165999997E+01 0.000000000E+00 0.000000000E+00 0.167999995E+01 0.000000000E+00 0.000000000E+00 0.170000005E+01 0.000000000E+00 0.000000000E+00 0.172000003E+01 0.000000000E+00 0.000000000E+00 0.174000001E+01 0.000000000E+00 0.000000000E+00 0.175999999E+01 0.000000000E+00 0.000000000E+00 0.177999997E+01 0.000000000E+00 0.000000000E+00 0.179999995E+01 0.000000000E+00 0.000000000E+00 0.182000005E+01 0.000000000E+00 0.000000000E+00 0.184000003E+01 0.000000000E+00 0.000000000E+00 0.186000001E+01 0.000000000E+00 0.000000000E+00 0.188000000E+01 0.000000000E+00 0.000000000E+00 0.189999998E+01 0.000000000E+00 0.000000000E+00 0.191999996E+01 0.000000000E+00 0.000000000E+00 0.194000006E+01 0.000000000E+00 0.000000000E+00 0.196000004E+01 0.000000000E+00 0.000000000E+00 0.198000002E+01 0.000000000E+00 0.000000000E+00 0.200000000E+01 0.000000000E+00 0.000000000E+00
0.000000000E+00 0.999999978E-02 0.000000000E+00 0.199999996E-01 0.999999978E-02 0.000000000E+00 0.399999991E-01 0.999999978E-02 0.000000000E+00 0.599999987E-01 0.999999978E-02 0.000000000E+00 0.799999982E-01 0.999999978E-02 0.000000000E+00 0.100000001E+00 0.999999978E-02 0.000000000E+00 0.119999997E+00 0.999999978E-02 0.000000000E+00 0.140000001E+00 0.999999978E-02 0.000000000E+00 0.159999996E+00 0.999999978E-02 0.000000000E+00 0.180000007E+00 0.999999978E-02 0.000000000E+00 0.200000003E+00 0.999999978E-02 0.000000000E+00 0.219999999E+00 0.999999978E-02 0.000000000E+00 0.239999995E+00 0.999999978E-02 0.000000000E+00 0.259999990E+00 0.999999978E-02 0.000000000E+00 0.280000001E+00 0.999999978E-02 0.000000000E+00 0.300000012E+00 0.999999978E-02 0.000000000E+00 0.319999993E+00 0.999999978E-02 0.000000000E+00 0.340000004E+00 0.999999978E-02 0.000000000E+00 0.360000014E+00 0.999999978E-02 0.000000000E+00 0.379999995E+00 0.999999978E-02 0.000000000E+00 0.400000006E+00 0.999999978E-02 0.000000000E+00 0.419999987E+00 0.999999978E-02 0.000000000E+00 0.439999998E+00 0.999999978E-02 0.000000000E+00 0.460000008E+00 0.999999978E-02 0.000000000E+00 0.479999989E+00 0.999999978E-02 0.000000000E+00 0.500000000E+00 0.999999978E-02 0.000000000E+00 0.519999981E+00 0.999999978E-02 0.000000000E+00 0.540000021E+00 0.999999978E-02 0.000000000E+00 0.560000002E+00 0.999999978E-02 0.000000000E+00 0.579999983E+00 0.999999978E-02 0.000000000E+00 0.600000024E+00 0.999999978E-02 0.000000000E+00 0.620000005E+00 0.999999978E-02 0.000000000E+00 0.639999986E+00 0.999999978E-02 0.000000000E+00 0.660000026E+00 0.999999978E-02 0.000000000E+00 0.680000007E+00 0.999999978E-02 0.000000000E+00 0.699999988E+00 0.999999978E-02 0.000000000E+00 0.720000029E+00 0.999999978E-02 0.000000000E+00 0.740000010E+00 0.999999978E-02 0.000000000E+00 0.759999990E+00 0.999999978E-02 0.000000000E+00 0.779999971E+00 0.999999978E-02 0.000000000E+00 0.800000012E+00 0.999999978E-02 0.000000000E+00 0.819999993E+00 0.999999978E-02 0.000000000E+00 0.839999974E+00 0.999999978E-02 0.000000000E+00 0.860000014E+00 0.999999978E-02 0.000000000E+00 0.879999995E+00 0.999999978E-02 0.000000000E+00 0.899999976E+00 0.999999978E-02 0.000000000E+00 0.920000017E+00 0.999999978E-02 0.000000000E+00 0.939999998E+00 0.999999978E-02 0.000000000E+00 0.959999979E+00 0.999999978E-02 0.000000000E+00 0.980000019E+00 0.999999978E-02 0.000000000E+00 0.100000000E+01 0.999999978E-02 0.000000000E+00 0.101999998E+01 0.999999978E-02 0.000000000E+00 0.103999996E+01 0.999999978E-02 0.000000000E+00 0.105999994E+01 0.999999978E-02 0.000000000E+00 0.108000004E+01 0.999999978E-02 0.000000000E+00 0.110000002E+01 0.999999978E-02 0.000000000E+00 0.112000000E+01 0.999999978E-02 0.000000000E+00 0.113999999E+01 0.999999978E-02 0.000000000E+00 0.115999997E+01 0.999999978E-02 0.000000000E+00 0.117999995E+01 0.999999978E-02 0.000000000E+00 0.120000005E+01 0.999999978E-02 0.000000000E+00 0.122000003E+01 0.999999978E-02 0.000000000E+00 0.124000001E+01 0.999999978E-02 0.000000000E+00 0.125999999E+01 0.999999978E-02 0.000000000E+00 0.127999997E+01 0.999999978E-02 0.000000000E+00 0.129999995E+01 0.999999978E-02 0.000000000E+00 0.132000005E+01 0.999999978E-02 0.000000000E+00 0.134000003E+01 0.999999978E-02 0.000000000E+00 0.136000001E+01 0.999999978E-02 0.000000000E+00 0.138000000E+01 0.999999978E-02 0.000000000E+00 0.139999998E+01 0.999999978E-02 0.000000000E+00 0.141999996E+01 0.999999978E-02 0.000000000E+00 0.144000006E+01 0.999999978E-02 0.000000000E+00 0.146000004E+01 0.999999978E-02 0.000000000E+00 0.148000002E+01 0.999999978E-02 0.000000000E+00 0.150000000E+01 0.999999978E-02 0.000000000E+00 0.151999998E+01 0.999999978E-02 0.000000000E+00 0.153999996E+01 0.999999978E-02 0.000000000E+00 0.155999994E+01 0.999999978E-02 0.000000000E+00 0.158000004E+01 0.999999978E-02 0.000000000E+00 0.160000002E+01 0.999999978E-02 0.000000000E+00 0.162000000E+01 0.999999978E-02 0.000000000E+00 0.163999999E+01 0.999999978E-02 0.000000000E+00 0.165999997E+01 0.999999978E-02 0.000000000E+00 0.167999995E+01 0.999999978E-02 0.000000000E+00 0.170000005E+01 0.999999978E-02 0.000000000E+00 0.172000003E+01 0.999999978E-02 0.000000000E+00 0.174000001E+01 0.999999978E-02 0.000000000E+00 0.175999999E+01 0.999999978E-02 0.000000000E+00 0.177999997E+01 0.999999978E-02 0.000000000E+00 0.179999995E+01 0.999999978E-02 0.000000000E+00 0.182000005E+01 0.999999978E-02 0.000000000E+00 0.184000003E+01 0.999999978E-02 0.000000000E+00 0.186000001E+01 0.999999978E-02 0.000000000E+00 0.188000000E+01 0.999999978E-02 0.000000000E+00 0.189999998E+01 0.999999978E-02 0.000000000E+00 0.191999996E+01 0.999999978E-02 0.000000000E+00 0.194000006E+01 0.999999978E-02 0.000000000E+00 0.196000004E+01 0.999999978E-02 0.000000000E+00 0.198000002E+01 0.999999978E-02 0.000000000E+00 0.200000000E+01 0.999999978E-02 0.000000000E+00
[...]
<CellData Scalars="Temperature, U, V">
<DataArray type="Float32" Name="Temp, K"/>
0.000000000E+00 0.000000000E+00 0.000000000E+00 0.000000000E+00 0.000000000E+00 0.418988241E-42 0.169135323E-39 0.208028965E-37 0.994140680E-36 0.212825979E-34 0.223200480E-33 0.122499837E-32 0.372370162E-32 0.664012882E-32 0.739317474E-32 0.547439584E-32 0.285037011E-32 0.109088998E-32 0.317325641E-33 0.719076182E-34 0.129227509E-34 0.186550161E-35 0.218267684E-36 0.208261034E-37 0.162733491E-38 0.119024890E-39 0.810651162E-41 0.489053164E-42 0.000000000E+00 0.000000000E+00 0.000000000E+00 0.000000000E+00 0.000000000E+00 0.000000000E+00 0.000000000E+00 0.000000000E+00 0.000000000E+00 0.238220739E-43 0.980908925E-43 0.130931163E-38 0.156219765E-32 0.131716670E-26 0.592647191E-21 0.113747997E-18 0.181373047E-13 0.147527704E-11 0.572271536E-10 0.125799693E-08 0.154691300E-07 0.215337330E-07 0.240166376E-08 0.147067691E-09 0.537806128E-11 0.114103876E-12 0.112850432E-14 0.752501067E-20 0.344453905E-22 0.783727219E-28 0.953112401E-34 0.821679381E-40 0.770714155E-43 0.154142831E-43 0.000000000E+00 0.000000000E+00 0.000000000E+00 0.000000000E+00 0.000000000E+00 0.000000000E+00 0.000000000E+00 0.000000000E+00 0.000000000E+00 0.418988241E-42 0.705974166E-41 0.102248545E-39 0.138698140E-38 0.176729871E-37 0.184983852E-36 0.158327911E-35 0.110075461E-34 0.615670160E-34 0.273256863E-33 0.944071564E-33 0.247220476E-32 0.473173063E-32 0.630699519E-32 0.551179309E-32 0.295519261E-32 0.912917933E-33 0.153646777E-33 0.133350909E-34 0.559158086E-36 0.103552509E-37 0.733145344E-40 0.140129846E-42 0.000000000E+00 0.000000000E+00 0.000000000E+00 0.000000000E+00 0.000000000E+00 0.000000000E+00
0.000000000E+00 0.000000000E+00 0.000000000E+00 0.000000000E+00 0.699247934E-42 0.490280702E-39 0.101723910E-36 0.793209655E-35 0.272246443E-33 0.453027258E-32 0.391957218E-31 0.186399597E-30 0.512804238E-30 0.860821378E-30 0.933281013E-30 0.691052957E-30 0.366987996E-30 0.145377277E-30 0.442718385E-31 0.106006323E-31 0.202910143E-32 0.314217561E-33 0.396961515E-34 0.411439094E-35 0.351125060E-36 0.280873349E-37 0.209636632E-38 0.145372104E-39 0.929481271E-41 0.559118087E-42 0.000000000E+00 0.000000000E+00 0.000000000E+00 0.000000000E+00 0.000000000E+00 0.000000000E+00 0.126116862E-43 0.546506401E-43 0.186386709E-40 0.232887730E-34 0.224724879E-28 0.151564871E-22 0.551387884E-17 0.836073453E-15 0.938644643E-13 0.536427023E-11 0.181226520E-09 0.373553055E-08 0.447104611E-07 0.619607547E-07 0.693777524E-08 0.438630715E-09 0.172188149E-10 0.425222086E-12 0.627754794E-14 0.500705461E-16 0.285637744E-18 0.799792052E-24 0.121186255E-29 0.129154016E-35 0.108040112E-41 0.560519386E-43 0.980908925E-44 0.000000000E+00 0.000000000E+00 0.000000000E+00 0.000000000E+00 0.000000000E+00 0.000000000E+00 0.489053164E-42 0.838677131E-41 0.128109508E-39 0.181785405E-38 0.240738031E-37 0.298604349E-36 0.348474705E-35 0.335857935E-34 0.266269376E-33 0.172585052E-32 0.906305851E-32 0.380670063E-31 0.125620591E-30 0.317836910E-30 0.596658363E-30 0.796114928E-30 0.715922891E-30 0.408902575E-30 0.139979113E-30 0.272530401E-31 0.287145040E-32 0.154997104E-33 0.399600781E-35 0.445954436E-37 0.183462199E-39 0.210194770E-42 0.000000000E+00 0.000000000E+00 0.000000000E+00 0.000000000E+00 0.000000000E+00
0.000000000E+00 0.000000000E+00 0.000000000E+00 0.489053164E-42 0.623142013E-39 0.220035831E-36 0.280345903E-34 0.153588071E-32 0.401737126E-31 0.541316512E-30 0.398031001E-29 0.167716735E-28 0.424591749E-28 0.678722208E-28 0.721464070E-28 0.535930271E-28 0.290507213E-28 0.119013157E-28 0.378684734E-29 0.955451494E-30 0.194131411E-30 0.321239684E-31 0.436374286E-32 0.489210948E-33 0.454106899E-34 0.395860601E-35 0.322438261E-36 0.244260896E-37 0.171371375E-38 0.110916977E-39 0.657068850E-41 0.348923318E-42 0.000000000E+00 0.000000000E+00 0.000000000E+00 0.420389539E-44 0.546506401E-43 0.253635022E-42 0.254097989E-36 0.231118670E-30 0.141714301E-24 0.433200271E-19 0.253135333E-16 0.332388328E-14 0.273560580E-12 0.134353795E-10 0.418365315E-09 0.825083024E-08 0.967321583E-07 0.133260045E-06 0.149681156E-07 0.968053970E-09 0.398171739E-10 0.107133443E-11 0.185603858E-13 0.197905384E-15 0.130710202E-17 0.196643248E-20 0.660758985E-26 0.111625436E-31 0.128076129E-37 0.896831017E-43 0.280259693E-43 0.000000000E+00 0.000000000E+00 0.000000000E+00 0.000000000E+00 0.348923318E-42 0.622036388E-41 0.101620763E-39 0.153451711E-38 0.214558161E-37 0.278952853E-36 0.338610855E-35 0.385515024E-34 0.413733191E-33 0.368729141E-32 0.271903040E-31 0.164934659E-30 0.815949749E-30 0.325225997E-29 0.102711115E-28 0.251289892E-28 0.462281566E-28 0.615339492E-28 0.565331758E-28 0.339920617E-28 0.126805635E-28 0.279317394E-29 0.346890499E-30 0.231462096E-31 0.783118102E-33 0.124333381E-34 0.831206529E-37 0.195273744E-39 0.140129846E-42 0.000000000E+00 0.000000000E+00 0.000000000E+00 0.000000000E+00
0.000000000E+00 0.000000000E+00 0.140129846E-42 0.386633661E-39 0.236622138E-36 0.496739404E-34 0.435057365E-32 0.178087324E-30 0.370582399E-29 0.417027930E-28 0.266692306E-27 0.101339583E-26 0.239213037E-26 0.367445054E-26 0.384999482E-26 0.287629683E-26 0.159230023E-26 0.674085929E-27 0.223717154E-27 0.593327618E-28 0.127580039E-28 0.224801765E-29 0.327077777E-30 0.394968952E-31 0.397088310E-32 0.375731869E-33 0.332838269E-34 0.274622249E-35 0.210046210E-36 0.148273941E-37 0.961973179E-39 0.571015111E-40 0.307444883E-41 0.140129846E-42 0.000000000E+00 0.966895940E-43 0.350324616E-43 0.244779096E-38 0.215385922E-32 0.131681560E-26 0.416366970E-21 0.263172346E-18 0.776241176E-16 0.890920096E-14 0.632830810E-12 0.284309763E-10 0.838129122E-09 0.159986158E-07 0.184424636E-06 0.252423234E-06 0.284419688E-07 0.187149207E-08 0.795846583E-10 0.226527087E-11 0.430241576E-13 0.527622434E-15 0.399554912E-17 0.119142467E-19 0.167711544E-22 0.553466826E-28 0.951636145E-34 0.114507104E-39 0.504467447E-43 0.742688186E-43 0.000000000E+00 0.140129846E-42 0.314451375E-41 0.552840270E-40 0.903405910E-39 0.135516141E-37 0.187610838E-36 0.240699167E-35 0.287407479E-34 0.320886149E-33 0.336669333E-32 0.333670537E-31 0.276121578E-30 0.190119660E-29 0.108306386E-28 0.506279978E-28 0.191961434E-27 0.581173724E-27 0.137594425E-26 0.247897517E-26 0.328308655E-26 0.306428223E-26 0.192160970E-26 0.770809019E-27 0.188740376E-27 0.270029010E-28 0.216000247E-29 0.919058906E-31 0.195229426E-32 0.189731920E-34 0.747982404E-37 0.972164823E-40 0.000000000E+00 0.000000000E+00 0.000000000E+00 0.000000000E+00
0.000000000E+00 0.000000000E+00 0.121957808E-39 0.133550201E-36 0.470330988E-34 0.664408950E-32 0.426301067E-30 0.136527323E-28 0.233562435E-27 0.224909560E-26 0.127444562E-25 0.443067610E-25 0.985766935E-25 0.146573536E-24 0.152030925E-24 0.114455175E-24 0.647308013E-25 0.282945548E-25 0.977865815E-26 0.271987588E-26 0.617182451E-27 0.115420861E-27 0.179203704E-28 0.232152874E-29 0.251707101E-30 0.257415777E-31 0.246992632E-32 0.221175737E-33 0.183886318E-34 0.141248966E-35 0.997780334E-37 0.645235025E-38 0.380064373E-39 0.202683810E-40 0.997724507E-42 0.145735040E-42 0.207854601E-40 0.164494808E-34 0.923893722E-29 0.275315671E-23 0.273364795E-20 0.960749395E-18 0.196198784E-15 0.200050056E-13 0.129024612E-11 0.544756046E-10 0.154177882E-08 0.286754993E-07 0.325703070E-06 0.442878616E-06 0.500832478E-07 0.334275096E-08 0.145860546E-09 0.432636305E-11 0.875588732E-13 0.117919851E-14 0.100724286E-16 0.434452060E-19 0.110244725E-21 0.100415356E-24 0.357345322E-30 0.680279733E-36 0.878614137E-42 0.156945428E-42 0.113505176E-41 0.211077588E-40 0.380763621E-39 0.623680952E-38 0.934610584E-37 0.128785472E-35 0.163898738E-34 0.193509145E-33 0.212968352E-32 0.219584754E-31 0.213213281E-30 0.195982405E-29 0.151197222E-28 0.975643971E-28 0.523684763E-27 0.231958194E-26 0.838527942E-26 0.243763767E-25 0.558902898E-25 0.985769770E-25 0.129621778E-24 0.122353867E-24 0.794160633E-25 0.338794589E-25 0.908919911E-26 0.147054728E-26 0.137661621E-27 0.713023727E-29 0.193613359E-30 0.256660596E-32 0.150231005E-34 0.338769621E-37 0.231340363E-40 0.000000000E+00 0.000000000E+00 0.000000000E+00
0.000000000E+00 0.194304045E-40 0.401837945E-37 0.245187401E-34 0.569037640E-32 0.577293880E-30 0.285206090E-28 0.740108878E-27 0.106788856E-25 0.897242197E-25 0.457433026E-24 0.147251863E-23 0.311559806E-23 0.451134563E-23 0.464836210E-23 0.353184269E-23 0.204094665E-23 0.920391924E-24 0.330730428E-24 0.962718885E-25 0.229935343E-25 0.454989663E-26 0.751222071E-27 0.104001577E-27 0.121101203E-28 0.133279797E-29 0.137922504E-30 0.133492136E-31 0.120200037E-32 0.100159351E-33 0.768425837E-35 0.540134506E-36 0.346133444E-37 0.201097680E-38 0.105163246E-39 0.507970693E-41 0.123388052E-36 0.595597950E-31 0.154046138E-25 0.206083727E-22 0.107276763E-19 0.273474410E-17 0.439750442E-15 0.404899841E-13 0.242679271E-11 0.976327352E-10 0.267374078E-08 0.486390199E-07 0.544901013E-06 0.736216862E-06 0.836229077E-07 0.565257530E-08 0.251998061E-09 0.772417547E-11 0.164196713E-12 0.237741692E-14 0.225325968E-16 0.123651831E-18 0.433491916E-21 0.754801786E-24 0.523798008E-27 0.218895048E-32 0.495152876E-38 0.563041723E-41 0.114657043E-39 0.209345583E-38 0.345897214E-37 0.520728608E-36 0.718078677E-35 0.911341657E-34 0.106951628E-32 0.116633813E-31 0.118797528E-30 0.113603338E-29 0.102523698E-28 0.877638151E-28 0.633648863E-27 0.384518924E-26 0.195061143E-25 0.820811559E-25 0.283497701E-24 0.792539117E-24 0.176116136E-23 0.304024705E-23 0.396264396E-23 0.376897151E-23 0.251621188E-23 0.113123324E-23 0.328528248E-24 0.591997153E-25 0.636138705E-26 0.391042405E-27 0.131098036E-28 0.225660732E-30 0.183723945E-32 0.628017758E-35 0.766061144E-38 0.244666712E-41 0.000000000E+00 0.000000000E+00
0.146715949E-41 0.630215347E-38 0.705448283E-35 0.277891420E-32 0.453919636E-30 0.349172844E-28 0.137891442E-26 0.297875511E-25 0.369927250E-24 0.275536098E-23 0.128009500E-22 0.385417464E-22 0.781312579E-22 0.110720516E-21 0.113650143E-21 0.872555702E-22 0.515221749E-22 0.239515321E-22 0.893574538E-23 0.271680166E-23 0.681328268E-24 0.142248693E-24 0.248954194E-25 0.367005827E-26 0.457144654E-27 0.539175583E-28 0.599161357E-29 0.624089887E-30 0.606071604E-31 0.545783533E-32 0.453299458E-33 0.345386012E-34 0.240158916E-35 0.151573690E-36 0.863004933E-38 0.149860323E-38 0.427266988E-33 0.937285164E-28 0.134147264E-24 0.905771543E-22 0.326755018E-19 0.669376513E-17 0.906459085E-15 0.764395600E-13 0.431329538E-11 0.166661560E-09 0.443654846E-08 0.791088581E-07 0.874465798E-06 0.117428021E-05 0.134090385E-06 0.917362275E-08 0.416815332E-09 0.131388034E-10 0.290963569E-12 0.447467770E-14 0.463927423E-16 0.302874895E-18 0.132388954E-20 0.333399992E-23 0.459503042E-26 0.309054843E-29 0.155829770E-34 0.546928192E-39 0.938272457E-38 0.157358329E-36 0.239372144E-35 0.332197258E-34 0.422743263E-33 0.495776387E-32 0.538564139E-31 0.544742138E-30 0.515726198E-29 0.459376301E-28 0.386927150E-27 0.309682101E-26 0.209996560E-25 0.120225779E-24 0.578030236E-24 0.231633938E-23 0.765871763E-23 0.206190570E-22 0.444424102E-22 0.750825693E-22 0.968769785E-22 0.925659231E-22 0.632344717E-22 0.297307728E-22 0.925203838E-23 0.183333365E-23 0.222595445E-24 0.159159267E-25 0.641376657E-27 0.138128644E-28 0.148254147E-30 0.719021471E-33 0.135694048E-35 0.801783745E-39 0.700649232E-43 0.000000000E+00
0.473298365E-39 0.108643087E-35 0.769408486E-33 0.208999205E-30 0.255041634E-28 0.154810082E-26 0.502836088E-25 0.923528435E-24 0.100343588E-22 0.671423119E-22 0.287349615E-21 0.816142770E-21 0.159512693E-20 0.222142060E-20 0.227682796E-20 0.176801011E-20 0.106666646E-20 0.510761158E-21 0.197568396E-21 0.626254395E-22 0.164539030E-22 0.361509749E-23 0.668652210E-24 0.104612767E-24 0.138878100E-25 0.174843489E-26 0.207771008E-27 0.231892016E-28 0.241821457E-29 0.234351961E-30 0.209895390E-31 0.172768999E-32 0.129963620E-33 0.888419316E-35 0.548644715E-36 0.361958129E-35 0.643570603E-30 0.938498921E-27 0.673566616E-24 0.305165250E-21 0.852639035E-19 0.148007013E-16 0.175614632E-14 0.137193642E-12 0.734893049E-11 0.274042566E-09 0.711040160E-08 0.124420822E-06 0.135701578E-05 0.181168377E-05 0.208178108E-06 0.144127696E-07 0.666531830E-09 0.215438362E-10 0.494510953E-12 0.801412430E-14 0.898452016E-16 0.670662066E-18 0.346606529E-20 0.112963107E-22 0.232638917E-25 0.312933824E-28 0.216386631E-31 0.171881857E-36 0.594810617E-36 0.919909636E-35 0.129233631E-33 0.165836998E-32 0.195424202E-31 0.212607549E-30 0.214686495E-29 0.202284740E-28 0.178777505E-27 0.148949939E-26 0.117555467E-25 0.882924556E-25 0.564195489E-24 0.305649581E-23 0.139640418E-22 0.534086727E-22 0.169357948E-21 0.439691530E-21 0.919949948E-21 0.152105348E-20 0.194081129E-20 0.185836868E-20 0.129338898E-20 0.631850726E-21 0.208875247E-21 0.450229645E-22 0.609559211E-23 0.498790193E-24 0.236596796E-25 0.619713026E-27 0.842800410E-29 0.546820106E-31 0.149399753E-33 0.139352283E-36 0.301223118E-40 0.000000000E+00
0.818426518E-37 0.116501604E-33 0.557310688E-31 0.111485600E-28 0.106024418E-26 0.523420057E-25 0.142942237E-23 0.226980905E-22 0.218733130E-21 0.132983147E-20 0.529187787E-20 0.142826304E-19 0.270570488E-19 0.371578998E-19 0.381013252E-19 0.299463066E-19 0.184572898E-19 0.909626770E-20 0.364335982E-20 0.120197976E-20 0.330164567E-21 0.761529210E-22 0.148448776E-22 0.245723960E-23 0.346477201E-24 0.463891874E-25 0.587146899E-26 0.699229715E-27 0.779597182E-28 0.809496417E-29 0.778511477E-30 0.689518714E-31 0.559141337E-32 0.412673730E-33 0.275982139E-34 0.535512100E-32 0.741255001E-29 0.535237849E-26 0.255769827E-23 0.872906777E-21 0.200385835E-18 0.304266874E-16 0.324401104E-14 0.236910941E-12 0.121152125E-10 0.437364922E-09 0.110787060E-07 0.190346796E-06 0.204783305E-05 0.271885551E-05 0.314697076E-06 0.220528111E-07 0.103734676E-08 0.343203486E-10 0.813851319E-12 0.138225079E-13 0.166029906E-15 0.138168765E-17 0.817842357E-20 0.325176038E-22 0.891409865E-25 0.180644609E-27 0.253033975E-30 0.196771877E-33 0.297927895E-34 0.426285266E-33 0.554870876E-32 0.660758305E-31 0.723915124E-30 0.733721155E-29 0.691721693E-28 0.609785820E-27 0.505203433E-26 0.395268987E-25 0.293389647E-24 0.207494340E-23 0.125332674E-22 0.644265731E-22 0.280375050E-21 0.102563237E-20 0.312440314E-20 0.783243751E-20 0.159196887E-19 0.257630345E-19 0.324819189E-19 0.311042529E-19 0.219749367E-19 0.110930429E-19 0.386654026E-20 0.898135786E-21 0.134066557E-21 0.123858499E-22 0.680131073E-24 0.211979559E-25 0.354495862E-27 0.295022563E-29 0.109376083E-31 0.150742026E-34 0.524431046E-38 0.000000000E+00
0.878306793E-35 0.827130649E-32 0.287369587E-29 0.442596612E-27 0.338735825E-25 0.139166956E-23 0.325046602E-22 0.452524139E-21 0.391336482E-20 0.218320089E-19 0.814370105E-19 0.210183931E-18 0.387686990E-18 0.526567151E-18 0.541028181E-18 0.430639403E-18 0.271100174E-18 0.137401627E-18 0.569159780E-19 0.195115347E-19 0.559235850E-20 0.135106231E-20 0.276860895E-21 0.483473096E-22 0.721763710E-23 0.102414528E-23 0.137551322E-24 0.174091048E-25 0.206651609E-26 0.228906765E-27 0.235346819E-28 0.223322918E-29 0.194430645E-30 0.154359673E-31 0.123413141E-32 0.771065696E-31 0.484699903E-28 0.228819475E-25 0.816282105E-23 0.223388384E-20 0.436821105E-18 0.592372624E-16 0.577180236E-14 0.396827265E-12 0.194514977E-10 0.681200429E-09 0.168614047E-07 0.284497531E-06 0.301788100E-05 0.398570000E-05 0.465146172E-06 0.330063230E-07 0.157887559E-08 0.534135583E-10 0.130565827E-11 0.231467152E-13 0.295750580E-15 0.269765621E-17 0.179114782E-19 0.838030164E-22 0.287287759E-24 0.782330799E-27 0.168267822E-29 0.295856298E-32 0.120293553E-32 0.159120969E-31 0.192621089E-30 0.213732050E-29 0.218643033E-28 0.207363625E-27 0.183314249E-26 0.151828099E-25 0.118387931E-24 0.873071018E-24 0.611575421E-23 0.408575896E-22 0.233952870E-21 0.114405945E-20 0.475324556E-20 0.166624241E-19 0.488418486E-19 0.118369584E-18 0.233899535E-18 0.370549876E-18 0.461344374E-18 0.441057200E-18 0.315337069E-18 0.163714320E-18 0.597794834E-19 0.148420694E-19 0.241875406E-20 0.249369534E-21 0.156341787E-22 0.570047604E-24 0.114575452E-25 0.118475410E-27 0.570180964E-30 0.108114302E-32 0.567273330E-36 0.714662217E-43
0.620448418E-33 0.418623772E-30 0.110646409E-27 0.135772730E-25 0.856576232E-24 0.297974158E-22 0.603790653E-21 0.745920134E-20 0.584848552E-19 0.302001600E-18 0.106346537E-17 0.263905171E-17 0.475797390E-17 0.640719172E-17 0.660510047E-17 0.532653360E-17 0.342405252E-17 0.178334329E-17 0.763079233E-18 0.271411892E-18 0.810232716E-19 0.204596048E-19 0.439685108E-20 0.807854101E-21 0.127311384E-21 0.190836434E-22 0.271034621E-23 0.363200534E-24 0.457174569E-25 0.537951869E-26 0.588697754E-27 0.595848961E-28 0.554536658E-29 0.471609885E-30 0.381805355E-31 0.612098152E-30 0.236853826E-27 0.817001977E-25 0.231302458E-22 0.527600311E-20 0.900144043E-18 0.110604398E-15 0.996526978E-14 0.648531901E-12 0.305605610E-10 0.103963127E-08 0.251584051E-07 0.416828868E-06 0.435744823E-05 0.572600129E-05 0.674421756E-06 0.484850844E-07 0.235872033E-08 0.815477616E-10 0.205178105E-11 0.378543090E-13 0.511632729E-15 0.505483910E-17 0.371078942E-19 0.199461258E-21 0.822679816E-24 0.283212563E-26 0.837376961E-29 0.261878689E-31 0.392695635E-31 0.485316008E-30 0.548646585E-29 0.569726550E-28 0.546605496E-27 0.487212513E-26 0.405575578E-25 0.316862327E-24 0.233408559E-23 0.162811314E-22 0.107976390E-21 0.683433747E-21 0.371970964E-20 0.173455008E-19 0.689465897E-19 0.232032279E-18 0.655448922E-18 0.153748826E-17 0.295582363E-17 0.458508240E-17 0.563446234E-17 0.537033571E-17 0.387541562E-17 0.206090747E-17 0.783933956E-18 0.206552712E-18 0.364318615E-19 0.414906242E-20 0.293465622E-21 0.123420073E-22 0.293043189E-24 0.367598358E-26 0.221997476E-28 0.552917807E-31 0.404535906E-34 0.379051235E-41
0.312360293E-31 0.158415081E-28 0.330409383E-26 0.331258200E-24 0.175287591E-22 0.523927385E-21 0.932551386E-20 0.103319550E-18 0.741157861E-18 0.356958957E-17 0.119401693E-16 0.286243866E-16 0.506112906E-16 0.677132233E-16 0.701131985E-16 0.573014017E-16 0.376020193E-16 0.201098741E-16 0.887865064E-17 0.327176981E-17 0.101553222E-17 0.267502145E-18 0.601531299E-19 0.115997088E-19 0.192440601E-20 0.303820753E-21 0.454810718E-22 0.643041584E-23 0.855089821E-24 0.106456372E-24 0.123476145E-25 0.132721418E-26 0.131451038E-27 0.119230990E-28 0.998202719E-30 0.359562507E-29 0.963934004E-27 0.257848850E-24 0.601415816E-22 0.117345918E-19 0.177646011E-17 0.199851243E-15 0.167912677E-13 0.103871837E-11 0.471559840E-10 0.155966084E-08 0.369061297E-07 0.600277133E-06 0.618055265E-05 0.808272216E-05 0.961703336E-06 0.700896265E-07 0.346855478E-08 0.122521673E-09 0.316990509E-11 0.607282101E-13 0.864487861E-15 0.917273733E-17 0.736793553E-19 0.447394195E-21 0.216338023E-23 0.907066011E-26 0.347512482E-28 0.220827546E-30 0.105779746E-29 0.122526693E-28 0.129927832E-27 0.126827552E-26 0.114620141E-25 0.964235901E-25 0.758864617E-24 0.561355313E-23 0.392008460E-22 0.259476395E-21 0.163412882E-20 0.982642100E-20 0.509622389E-19 0.227120635E-18 0.865422568E-18 0.280090407E-17 0.763570093E-17 0.173552965E-16 0.324860859E-16 0.493552367E-16 0.598429240E-16 0.567980325E-16 0.412783507E-16 0.224065725E-16 0.883542632E-17 0.245497280E-17 0.465066686E-18 0.579806757E-19 0.457841036E-20 0.219382420E-21 0.606470545E-23 0.906995846E-25 0.670311010E-27 0.211494812E-29 0.205651304E-32 0.244474734E-39