<?xml version="1.0"?>
<VTKFile type="StructuredGrid">
<StructuredGrid WholeExtent="     0   100     0   100     0     0">
<Piece Extent="     0   100     0   100     0     0">
<Points>
<DataArray type="Float32" NumberOfComponents="3"/>
0.000000000E+00 0.000000000E+00 0.000000000E+00 0.199999996E-01 0.000000000E+00 0.000000000E+00 0.399999991E-01 0.000000000E+00 0.000000000E+00 0.599999987E-01 0.000000000E+00 0.000000000E+00 0.799999982E-01 0.000000000E+00 0.000000000E+00 0.100000001E+00 0.000000000E+00 0.000000000E+00 0.119999997E+00 0.000000000E+00 0.000000000E+00 0.140000001E+00 0.000000000E+00 0.000000000E+00 0.159999996E+00 0.000000000E+00 0.000000000E+00 0.180000007E+00 0.000000000E+00 0.000000000E+00 0.200000003E+00 0.000000000E+00 0.000000000E+00 0.219999999E+00 0.000000000E+00 0.000000000E+00 0.239999995E+00 0.000000000E+00 0.000000000E+00 0.259999990E+00 0.000000000E+00 0.000000000E+00 0.280000001E+00 0.000000000E+00 0.000000000E+00 0.300000012E+00 0.000000000E+00 0.000000000E+00 0.319999993E+00 0.000000000E+00 0.000000000E+00 0.340000004E+00 0.000000000E+00 0.000000000E+00 0.360000014E+00 0.000000000E+00 0.000000000E+00 0.379999995E+00 0.000000000E+00 0.000000000E+00 0.400000006E+00 0.000000000E+00 0.000000000E+00 0.419999987E+00 0.000000000E+00 0.000000000E+00 0.439999998E+00 0.000000000E+00 0.000000000E+00 0.460000008E+00 0.000000000E+00 0.000000000E+00 0.479999989E+00 0.000000000E+00 0.000000000E+00 0.500000000E+00 0.000000000E+00 0.000000000E+00 0.519999981E+00 0.000000000E+00 0.000000000E+00 0.540000021E+00 0.000000000E+00 0.000000000E+00 0.560000002E+00 0.000000000E+00 0.000000000E+00 0.579999983E+00 0.000000000E+00 0.000000000E+00 0.600000024E+00 0.000000000E+00 0.000000000E+00 0.620000005E+00 0.000000000E+00 0.000000000E+00 0.639999986E+00 0.000000000E+00 0.000000000E+00 0.660000026E+00 0.000000000E+00 0.000000000E+00 0.680000007E+00 0.000000000E+00 0.000000000E+00 0.699999988E+00 0.000000000E+00 0.000000000E+00 0.720000029E+00 0.000000000E+00 0.000000000E+00 0.740000010E+00 0.000000000E+00 0.000000000E+00 0.759999990E+00 0.000000000E+00 0.000000000E+00 0.779999971E+00 0.000000000E+00 0.000000000E+00 0.800000012E+00 0.000000000E+00 0.000000000E+00 0.819999993E+00 0.000000000E+00 0.000000000E+00 0.839999974E+00 0.000000000E+00 0.000000000E+00 0.860000014E+00 0.000000000E+00 0.000000000E+00 0.879999995E+00 0.000000000E+00 0.000000000E+00 0.899999976E+00 0.000000000E+00 0.000000000E+00 0.920000017E+00 0.000000000E+00 0.000000000E+00 0.939999998E+00 0.000000000E+00 0.000000000E+00 0.959999979E+00 0.000000000E+00 0.000000000E+00 0.980000019E+00 0.000000000E+00 0.000000000E+00 0.100000000E+01 0.000000000E+00 0.000000000E+00 0.101999998E+01 0.000000000E+00 0.000000000E+00 0.103999996E+01 0.000000000E+00 0.000000000E+00 0.105999994E+01 0.000000000E+00 0.000000000E+00 0.108000004E+01 0.000000000E+00 0.000000000E+00 0.110000002E+01 0.000000000E+00 0.000000000E+00 0.112000000E+01 0.000000000E+00 0.000000000E+00 0.113999999E+01 0.000000000E+00 0.000000000E+00 0.115999997E+01 0.000000000E+00 0.000000000E+00 0.117999995E+01 0.000000000E+00 0.000000000E+00 0.120000005E+01 0.000000000E+00 0.000000000E+00 0.122000003E+01 0.000000000E+00 0.000000000E+00 0.124000001E+01 0.000000000E+00 0.000000000E+00 0.125999999E+01 0.000000000E+00 0.000000000E+00 0.127999997E+01 0.000000000E+00 0.000000000E+00 0.129999995E+01 0.000000000E+00 0.000000000E+00 0.132000005E+01 0.000000000E+00 0.000000000E+00 0.134000003E+01 0.000000000E+00 0.000000000E+00 0.136000001E+01 0.000000000E+00 0.000000000E+00 0.138000000E+01 0.000000000E+00 0.000000000E+00 0.139999998E+01 0.000000000E+00 0.000000000E+00 0.141999996E+01 0.000000000E+00 0.000000000E+00 0.144000006E+01 0.000000000E+00 0.000000000E+00 0.146000004E+01 0.000000000E+00 0.000000000E+00 0.148000002E+01 0.000000000E+00 0.000000000E+00 0.150000000E+01 0.000000000E+00 0.000000000E+00 0.151999998E+01 0.000000000E+00 0.000000000E+00 0.153999996E+01 0.000000000E+00 0.000000000E+00 0.155999994E+01 0.000000000E+00 0.000000000E+00 0.158000004E+01 0.000000000E+00 0.000000000E+00 0.160000002E+01 0.000000000E+00 0.000000000E+00 0.162000000E+01 0.000000000E+00 0.000000000E+00 0.163999999E+01 0.000000000E+00 0.000000000E+00 0.165999997E+01 0.000000000E+00 0.000000000E+00 0.167999995E+01 0.000000000E+00 0.000000000E+00 0.170000005E+01 0.000000000E+00 0.000000000E+00 0.172000003E+01 0.000000000E+00 0.000000000E+00 0.174000001E+01 0.000000000E+00 0.000000000E+00 0.175999999E+01 0.000000000E+00 0.000000000E+00 0.177999997E+01 0.000000000E+00 0.000000000E+00 0.179999995E+01 0.000000000E+00 0.000000000E+00 0.182000005E+01 0.000000000E+00 0.000000000E+00 0.184000003E+01 0.000000000E+00 0.000000000E+00 0.186000001E+01 0.000000000E+00 0.000000000E+00 0.188000000E+01 0.000000000E+00 0.000000000E+00 0.189999998E+01 0.000000000E+00 0.000000000E+00 0.191999996E+01 0.000000000E+00 0.000000000E+00 0.194000006E+01 0.000000000E+00 0.000000000E+00 0.196000004E+01 0.000000000E+00 0.000000000E+00 0.198000002E+01 0.000000000E+00 0.000000000E+00 0.200000000E+01 0.000000000E+00 0.000000000E+00
0.000000000E+00 0.999999978E-02 0.000000000E+00 0.199999996E-01 0.999999978E-02 0.000000000E+00 0.399999991E-01 0.999999978E-02 0.000000000E+00 0.599999987E-01 0.999999978E-02 0.000000000E+00 0.799999982E-01 0.999999978E-02 0.000000000E+00 0.100000001E+00 0.999999978E-02 0.000000000E+00 0.119999997E+00 0.999999978E-02 0.000000000E+00 0.140000001E+00 0.999999978E-02 0.000000000E+00 0.159999996E+00 0.999999978E-02 0.000000000E+00 0.180000007E+00 0.999999978E-02 0.000000000E+00 0.200000003E+00 0.999999978E-02 0.000000000E+00 0.219999999E+00 0.999999978E-02 0.000000000E+00 0.239999995E+00 0.999999978E-02 0.000000000E+00 0.259999990E+00 0.999999978E-02 0.000000000E+00 0.280000001E+00 0.999999978E-02 0.000000000E+00 0.300000012E+00 0.999999978E-02 0.000000000E+00 0.319999993E+00 0.999999978E-02 0.000000000E+00 0.340000004E+00 0.999999978E-02 0.000000000E+00 0.360000014E+00 0.999999978E-02 0.000000000E+00 0.379999995E+00 0.999999978E-02 0.000000000E+00 0.400000006E+00 0.999999978E-02 0.000000000E+00 0.419999987E+00 0.999999978E-02 0.000000000E+00 0.439999998E+00 0.999999978E-02 0.000000000E+00 0.460000008E+00 0.999999978E-02 0.000000000E+00 0.479999989E+00 0.999999978E-02 0.000000000E+00 0.500000000E+00 0.999999978E-02 0.000000000E+00 0.519999981E+00 0.999999978E-02 0.000000000E+00 0.540000021E+00 0.999999978E-02 0.000000000E+00 0.560000002E+00 0.999999978E-02 0.000000000E+00 0.579999983E+00 0.999999978E-02 0.000000000E+00 0.600000024E+00 0.999999978E-02 0.000000000E+00 0.620000005E+00 0.999999978E-02 0.000000000E+00 0.639999986E+00 0.999999978E-02 0.000000000E+00 0.660000026E+00 0.999999978E-02 0.000000000E+00 0.680000007E+00 0.999999978E-02 0.000000000E+00 0.699999988E+00 0.999999978E-02 0.000000000E+00 0.720000029E+00 0.999999978E-02 0.000000000E+00 0.740000010E+00 0.999999978E-02 0.000000000E+00 0.759999990E+00 0.999999978E-02 0.000000000E+00 0.779999971E+00 0.999999978E-02 0.000000000E+00 0.800000012E+00 0.999999978E-02 0.000000000E+00 0.819999993E+00 0.999999978E-02 0.000000000E+00 0.839999974E+00 0.999999978E-02 0.000000000E+00 0.860000014E+00 0.999999978E-02 0.000000000E+00 0.879999995E+00 0.999999978E-02 0.000000000E+00 0.899999976E+00 0.999999978E-02 0.000000000E+00 0.920000017E+00 0.999999978E-02 0.000000000E+00 0.939999998E+00 0.999999978E-02 0.000000000E+00 0.959999979E+00 0.999999978E-02 0.000000000E+00 0.980000019E+00 0.999999978E-02 0.000000000E+00 0.100000000E+01 0.999999978E-02 0.000000000E+00 0.101999998E+01 0.999999978E-02 0.000000000E+00 0.103999996E+01 0.999999978E-02 0.000000000E+00 0.105999994E+01 0.999999978E-02 0.000000000E+00 0.108000004E+01 0.999999978E-02 0.000000000E+00 0.110000002E+01 0.999999978E-02 0.000000000E+00 0.112000000E+01 0.999999978E-02 0.000000000E+00 0.113999999E+01 0.999999978E-02 0.000000000E+00 0.115999997E+01 0.999999978E-02 0.000000000E+00 0.117999995E+01 0.999999978E-02 0.000000000E+00 0.120000005E+01 0.999999978E-02 0.000000000E+00 0.122000003E+01 0.999999978E-02 0.000000000E+00 0.124000001E+01 0.999999978E-02 0.000000000E+00 0.125999999E+01 0.999999978E-02 0.000000000E+00 0.127999997E+01 0.999999978E-02 0.000000000E+00 0.129999995E+01 0.999999978E-02 0.000000000E+00 0.132000005E+01 0.999999978E-02 0.000000000E+00 0.134000003E+01 0.999999978E-02 0.000000000E+00 0.136000001E+01 0.999999978E-02 0.000000000E+00 0.138000000E+01 0.999999978E-02 0.000000000E+00 0.139999998E+01 0.999999978E-02 0.000000000E+00 0.141999996E+01 0.999999978E-02 0.000000000E+00 0.144000006E+01 0.999999978E-02 0.000000000E+00 0.146000004E+01 0.999999978E-02 0.000000000E+00 0.148000002E+01 0.999999978E-02 0.000000000E+00 0.150000000E+01 0.999999978E-02 0.000000000E+00 0.151999998E+01 0.999999978E-02 0.000000000E+00 0.153999996E+01 0.999999978E-02 0.000000000E+00 0.155999994E+01 0.999999978E-02 0.000000000E+00 0.158000004E+01 0.999999978E-02 0.000000000E+00 0.160000002E+01 0.999999978E-02 0.000000000E+00 0.162000000E+01 0.999999978E-02 0.000000000E+00 0.163999999E+01 0.999999978E-02 0.000000000E+00 0.165999997E+01 0.999999978E-02 0.000000000E+00 0.167999995E+01 0.999999978E-02 0.000000000E+00 0.170000005E+01 0.999999978E-02 0.000000000E+00 0.172000003E+01 0.999999978E-02 0.000000000E+00 0.174000001E+01 0.999999978E-02 0.000000000E+00 0.175999999E+01 0.999999978E-02 0.000000000E+00 0.177999997E+01 0.999999978E-02 0.000000000E+00 0.179999995E+01 0.999999978E-02 0.000000000E+00 0.182000005E+01 0.999999978E-02 0.000000000E+00 0.184000003E+01 0.999999978E-02 0.000000000E+00 0.186000001E+01 0.999999978E-02 0.000000000E+00 0.188000000E+01 0.999999978E-02 0.000000000E+00 0.189999998E+01 0.999999978E-02 0.000000000E+00 0.191999996E+01 0.999999978E-02 0.000000000E+00 0.194000006E+01 0.999999978E-02 0.000000000E+00 0.196000004E+01 0.999999978E-02 0.000000000E+00 0.198000002E+01 0.999999978E-02 0.000000000E+00 0.200000000E+01 0.999999978E-02 0.000000000E+00
[...]
<CellData Scalars="Temperature, U, V">
<DataArray type="Float32" Name="Temp, K"/>
0.658029231E-08 0.272786291E-07 0.751689910E-07 0.163096345E-06 0.299241577E-06 0.483488748E-06 0.705761977E-06 0.946824798E-06 0.118132266E-05 0.138229086E-05 0.152604241E-05 0.159633169E-05 0.158693945E-05 0.150222434E-05 0.135567927E-05 0.116695765E-05 0.958125042E-06 0.749982576E-06 0.559193722E-06 0.396666252E-06 0.267285998E-06 0.170778137E-06 0.103253079E-06 0.589385394E-07 0.316840421E-07 0.166740559E-07 0.857227000E-08 0.429553371E-08 0.209278062E-08 0.988611526E-09 0.451448268E-09 0.198614694E-09 0.838702788E-10 0.338511823E-10 0.129972838E-10 0.472186092E-11 0.161321661E-11 0.514665459E-12 0.152070292E-12 0.412148444E-13 0.101283584E-13 0.222534995E-14 0.429561615E-15 0.712260145E-16 0.984474962E-17 0.389810683E-17 0.176871067E-14 0.590918211E-12 0.101904284E-09 0.144359608E-09 0.112452690E-11 0.443215834E-14 0.100418345E-16 0.235022050E-17 0.173723728E-16 0.107573284E-15 0.572216337E-15 0.267427106E-14 0.111749158E-13 0.423425739E-13 0.147169413E-12 0.473763986E-12 0.142422077E-11 0.402652868E-11 0.107717845E-10 0.274146122E-10 0.666921379E-10 0.155737923E-09 0.350408980E-09 0.762225560E-09 0.160783786E-08 0.329799787E-08 0.659476918E-08 0.128851267E-07 0.246510670E-07 0.462688803E-07 0.819241635E-07 0.137137988E-06 0.217466251E-06 0.327254014E-06 0.468061955E-06 0.637082451E-06 0.825993993E-06 0.102072397E-05 0.120246148E-05 0.135000096E-05 0.144313299E-05 0.146649802E-05 0.141303167E-05 0.128615045E-05 0.109996427E-05 0.877256355E-06 0.645438206E-06 0.431273008E-06 0.255598081E-06 0.129405564E-06 0.524532418E-07 0.149832733E-07 0.218793694E-08 0.125345079E-13
0.528087298E-07 0.211955026E-06 0.570847192E-06 0.121930066E-05 0.221422965E-05 0.355623183E-05 0.517890658E-05 0.695359677E-05 0.870815620E-05 0.102552194E-04 0.114236773E-04 0.120868472E-04 0.121819703E-04 0.117176551E-04 0.107686419E-04 0.945963893E-05 0.794222888E-05 0.636977484E-05 0.487534271E-05 0.355646739E-05 0.246867444E-05 0.162749120E-05 0.101684316E-05 0.600678220E-06 0.334629448E-06 0.182136887E-06 0.966719753E-07 0.499282180E-07 0.250329855E-07 0.121526096E-07 0.569587488E-08 0.256912136E-08 0.111115073E-08 0.458945271E-09 0.180198939E-09 0.669077779E-10 0.233525126E-10 0.760886579E-11 0.229579788E-11 0.635392997E-12 0.159476734E-12 0.357982246E-13 0.706307402E-14 0.119777733E-14 0.169418316E-15 0.250839741E-16 0.368564025E-14 0.122379255E-11 0.210597317E-09 0.298107428E-09 0.232142669E-11 0.917154146E-14 0.249139224E-16 0.412257553E-16 0.299070949E-15 0.181097042E-14 0.942701253E-14 0.431398115E-13 0.176589076E-12 0.655641936E-12 0.223323855E-11 0.704532613E-11 0.207523443E-10 0.574695361E-10 0.150527257E-09 0.374862780E-09 0.891679786E-09 0.203420103E-08 0.446684956E-08 0.947191925E-08 0.194521323E-07 0.387906987E-07 0.752921281E-07 0.142550590E-06 0.263778418E-06 0.477904507E-06 0.817827470E-06 0.132491664E-05 0.203621289E-05 0.297422207E-05 0.413564021E-05 0.548172648E-05 0.693345100E-05 0.837407151E-05 0.966041898E-05 0.106422076E-04 0.111863765E-04 0.112021144E-04 0.106609778E-04 0.960733178E-05 0.815555632E-05 0.647352999E-05 0.475435991E-05 0.318165803E-05 0.189586615E-05 0.969693929E-06 0.399626629E-06 0.117135087E-06 0.177941555E-07 0.101228996E-12
0.298917797E-06 0.116595720E-05 0.307731898E-05 0.648117702E-05 0.116588781E-04 0.186172201E-04 0.270404107E-04 0.363116378E-04 0.455971822E-04 0.539736320E-04 0.605719397E-04 0.647109337E-04 0.659970246E-04 0.643738604E-04 0.601158572E-04 0.537695923E-04 0.460563242E-04 0.377554679E-04 0.295914015E-04 0.221436076E-04 0.157940576E-04 0.107163069E-04 0.690139677E-05 0.420828292E-05 0.242322676E-05 0.136066262E-05 0.743693420E-06 0.394874291E-06 0.203227458E-06 0.101132677E-06 0.485274576E-07 0.223834284E-07 0.989001947E-08 0.416957624E-08 0.166983360E-08 0.632018715E-09 0.224761168E-09 0.745942544E-10 0.229214495E-10 0.646043939E-11 0.165150500E-11 0.377678872E-12 0.759474542E-13 0.131339946E-13 0.189573745E-14 0.228239751E-15 0.578269308E-14 0.190296607E-11 0.326628169E-09 0.461994415E-09 0.359832455E-11 0.142604011E-13 0.848266439E-16 0.470905744E-15 0.334940777E-14 0.198911746E-13 0.101618136E-12 0.456618575E-12 0.183604846E-11 0.669784323E-11 0.224176892E-10 0.694898167E-10 0.201078834E-09 0.546851342E-09 0.140595768E-08 0.343469653E-08 0.800863642E-08 0.178934290E-07 0.384423195E-07 0.796627759E-07 0.159674642E-06 0.310334940E-06 0.586151543E-06 0.107807136E-05 0.193433902E-05 0.339140024E-05 0.562329660E-05 0.883872144E-05 0.131980687E-04 0.187584301E-04 0.254205952E-04 0.328925780E-04 0.406834515E-04 0.481364077E-04 0.545019611E-04 0.590425443E-04 0.611512223E-04 0.604631132E-04 0.569355907E-04 0.508792618E-04 0.429278953E-04 0.339490762E-04 0.249064851E-04 0.166978643E-04 0.100010830E-04 0.516262207E-05 0.215881710E-05 0.647071374E-06 0.101725803E-06 0.572458313E-12
0.127373494E-05 0.483711437E-05 0.125263305E-04 0.260296292E-04 0.463907127E-04 0.736370785E-04 0.106622058E-03 0.143104815E-03 0.180039482E-03 0.214008251E-03 0.241715403E-03 0.260457047E-03 0.268492178E-03 0.265260518E-03 0.251419318E-03 0.228699922E-03 0.199614034E-03 0.167064383E-03 0.133929017E-03 0.102691774E-03 0.751794432E-04 0.524412426E-04 0.347739842E-04 0.218645746E-04 0.129998798E-04 0.752326378E-05 0.423071242E-05 0.230752585E-05 0.121813116E-05 0.620917547E-06 0.304802370E-06 0.143666270E-06 0.648012701E-07 0.278643952E-07 0.113728351E-07 0.438413705E-08 0.158712243E-08 0.535996802E-09 0.167554998E-09 0.480380458E-10 0.124916726E-10 0.290636872E-11 0.594784150E-12 0.104725710E-12 0.153991386E-13 0.182543583E-14 0.818739590E-14 0.263324388E-11 0.450594062E-09 0.636837361E-09 0.496361242E-11 0.197681735E-13 0.491707390E-15 0.390144688E-14 0.272435747E-13 0.158939458E-12 0.798102686E-12 0.352645018E-11 0.139471108E-10 0.500506928E-10 0.164793457E-09 0.502440090E-09 0.142963530E-08 0.382163279E-08 0.965253655E-08 0.231505393E-07 0.529534923E-07 0.115957612E-06 0.243914712E-06 0.494318670E-06 0.967739425E-06 0.183450459E-05 0.337446113E-05 0.603441049E-05 0.105085692E-04 0.178479004E-04 0.287042039E-04 0.438202733E-04 0.636426339E-04 0.881136802E-04 0.116502211E-03 0.147324230E-03 0.178393806E-03 0.207018398E-03 0.230321530E-03 0.245647825E-03 0.250979851E-03 0.245296687E-03 0.228799807E-03 0.202960044E-03 0.170358850E-03 0.134340575E-03 0.985157603E-04 0.661947197E-04 0.398555749E-04 0.207572211E-04 0.879898198E-05 0.269200018E-05 0.436667591E-06 0.242121492E-11
0.437627068E-05 0.162072884E-04 0.412270019E-04 0.845715767E-04 0.149343905E-03 0.235587751E-03 0.339887745E-03 0.455629517E-03 0.573818979E-03 0.684280065E-03 0.777016510E-03 0.843524060E-03 0.877872866E-03 0.877415936E-03 0.843040994E-03 0.778941729E-03 0.691949797E-03 0.590537675E-03 0.483648590E-03 0.379546429E-03 0.284873560E-03 0.204062817E-03 0.139174212E-03 0.901351741E-04 0.552760503E-04 0.329380418E-04 0.190410210E-04 0.106596499E-04 0.576750335E-05 0.300917509E-05 0.151014558E-05 0.726867142E-06 0.334459031E-06 0.146580149E-06 0.609278601E-07 0.239033024E-07 0.880170248E-08 0.302210035E-08 0.960186930E-09 0.279737844E-09 0.739138126E-10 0.174752452E-10 0.363484091E-11 0.650693800E-12 0.973237197E-13 0.116742892E-13 0.115442866E-13 0.341997979E-11 0.583146864E-09 0.823526636E-09 0.642656327E-11 0.258974428E-13 0.298943910E-14 0.251212862E-13 0.172485073E-12 0.989998448E-12 0.489292244E-11 0.212856816E-10 0.828991945E-10 0.292962182E-09 0.949817225E-09 0.285096147E-08 0.798350897E-08 0.209933031E-07 0.521298986E-07 0.122834351E-06 0.275814244E-06 0.592359868E-06 0.122079211E-05 0.242121428E-05 0.463302513E-05 0.857265422E-05 0.153693018E-04 0.267456580E-04 0.452479144E-04 0.745244542E-04 0.116376890E-03 0.172741449E-03 0.244285940E-03 0.329828850E-03 0.425967621E-03 0.527047727E-03 0.625541608E-03 0.712821144E-03 0.780225615E-03 0.820260087E-03 0.827726442E-03 0.800608192E-03 0.740541611E-03 0.652784249E-03 0.545641931E-03 0.429417763E-03 0.314990000E-03 0.212222731E-03 0.128473999E-03 0.674914481E-04 0.289778163E-04 0.903372074E-05 0.150756591E-05 0.820471815E-11
0.126776686E-04 0.458564209E-04 0.114694551E-03 0.232371516E-03 0.406590640E-03 0.637223769E-03 0.915522745E-03 0.122487999E-02 0.154283934E-02 0.184391323E-02 0.210274011E-02 0.229713228E-02 0.241066236E-02 0.243448885E-02 0.236824225E-02 0.221987092E-02 0.200447906E-02 0.174229185E-02 0.145602773E-02 0.116805697E-02 0.897783029E-03 0.659671670E-03 0.462224038E-03 0.308007526E-03 0.194615946E-03 0.119294142E-03 0.708317602E-04 0.406693471E-04 0.225374079E-04 0.120281165E-04 0.616714169E-05 0.302939316E-05 0.142115266E-05 0.634416040E-06 0.268388391E-06 0.107089555E-06 0.400807707E-07 0.139812082E-07 0.451121318E-08 0.133436973E-08 0.357911034E-09 0.858987950E-10 0.181387388E-10 0.329726546E-11 0.500961360E-12 0.610009005E-13 0.187656101E-13 0.426924815E-11 0.724997895E-09 0.102303388E-08 0.799745947E-11 0.334321668E-13 0.156781496E-13 0.131604580E-12 0.889745905E-12 0.503073711E-11 0.245014477E-10 0.105057366E-09 0.403311079E-09 0.140486556E-08 0.448877069E-08 0.132746436E-07 0.366100110E-07 0.947640189E-07 0.231494710E-06 0.536233983E-06 0.118270111E-05 0.249268464E-05 0.503619913E-05 0.978109074E-05 0.183055708E-04 0.330848197E-04 0.578565450E-04 0.980588520E-04 0.161316522E-03 0.257929234E-03 0.391514302E-03 0.565658323E-03 0.779776834E-03 0.102790084E-02 0.129820569E-02 0.157350651E-02 0.183275214E-02 0.205333671E-02 0.221388857E-02 0.229711854E-02 0.229227706E-02 0.219689612E-02 0.201750756E-02 0.176923024E-02 0.147418445E-02 0.115890417E-02 0.850955723E-03 0.575189886E-03 0.350185670E-03 0.185531375E-03 0.806249882E-04 0.255704017E-04 0.437787958E-05 0.233008092E-10
0.319647988E-04 0.113076800E-03 0.278339401E-03 0.557153660E-03 0.965930056E-03 0.150348758E-02 0.214990205E-02 0.286852662E-02 0.361040211E-02 0.432009250E-02 0.494203810E-02 0.542663364E-02 0.573545042E-02 0.584512157E-02 0.574959023E-02 0.546049653E-02 0.500565860E-02 0.442572730E-02 0.376935326E-02 0.308744004E-02 0.242725736E-02 0.182733510E-02 0.131396682E-02 0.899884850E-03 0.585201371E-03 0.368651206E-03 0.224637275E-03 0.132187008E-03 0.749773899E-04 0.409067543E-04 0.214165830E-04 0.107305559E-04 0.512949418E-05 0.233119817E-05 0.100318903E-05 0.406876893E-06 0.154694007E-06 0.547862484E-07 0.179399837E-07 0.538350386E-08 0.146463686E-08 0.356502328E-09 0.763496280E-10 0.140777511E-10 0.217004800E-11 0.268120649E-12 0.410092628E-13 0.518829988E-11 0.876925699E-09 0.123642097E-08 0.968782433E-11 0.452998607E-13 0.698380291E-13 0.579657416E-12 0.386366069E-11 0.215450331E-10 0.103511484E-09 0.437877318E-09 0.165841563E-08 0.569855185E-08 0.179570456E-07 0.523555634E-07 0.142292450E-06 0.362771061E-06 0.872287956E-06 0.198739099E-05 0.430778800E-05 0.891451054E-05 0.176663179E-04 0.336177363E-04 0.615731551E-04 0.108772256E-03 0.185671015E-03 0.306740287E-03 0.491152634E-03 0.763180607E-03 0.112726737E-02 0.158705423E-02 0.213507866E-02 0.275098905E-02 0.340173859E-02 0.404394511E-02 0.462815678E-02 0.510439230E-02 0.542810978E-02 0.556578906E-02 0.549932104E-02 0.522877974E-02 0.477313530E-02 0.416885223E-02 0.346633629E-02 0.272456184E-02 0.200418942E-02 0.135988870E-02 0.832886668E-03 0.444996404E-03 0.195601489E-03 0.630197610E-04 0.110398942E-04 0.572680306E-10
0.718388110E-04 0.248838071E-03 0.603274326E-03 0.119344785E-02 0.204989314E-02 0.316766114E-02 0.450542523E-02 0.599035900E-02 0.752698025E-02 0.900804531E-02 0.103259347E-01 0.113832792E-01 0.121020759E-01 0.124306977E-01 0.123484079E-01 0.118671004E-01 0.110300165E-01 0.990733691E-02 0.858885422E-02 0.717427908E-02 0.576224411E-02 0.443954347E-02 0.327231735E-02 0.230075652E-02 0.153821288E-02 0.994926319E-03 0.621676038E-03 0.374656520E-03 0.217374778E-03 0.121171724E-03 0.647442648E-04 0.330721959E-04 0.161019852E-04 0.744653789E-05 0.325812925E-05 0.134256288E-05 0.518255831E-06 0.186248755E-06 0.618567739E-07 0.188195006E-07 0.518953458E-08 0.128008437E-08 0.277798035E-09 0.519058789E-10 0.810917306E-11 0.101564568E-11 0.114875638E-12 0.618675337E-11 0.103978182E-08 0.146484935E-08 0.115108383E-10 0.711585196E-13 0.268483586E-12 0.220061794E-11 0.144773724E-10 0.797003574E-10 0.378077736E-09 0.157919078E-08 0.590512439E-08 0.200296153E-07 0.622860199E-07 0.179142503E-06 0.480052677E-06 0.120604125E-05 0.285577676E-05 0.640261578E-05 0.136451026E-04 0.277378185E-04 0.539440698E-04 0.100630015E-03 0.180476563E-03 0.311816286E-03 0.519914320E-03 0.837913132E-03 0.130707503E-02 0.197591819E-02 0.284312689E-02 0.390484207E-02 0.513247307E-02 0.647147745E-02 0.784433447E-02 0.915742014E-02 0.103107104E-01 0.112087699E-01 0.117714750E-01 0.119431699E-01 0.116991978E-01 0.110494560E-01 0.100384932E-01 0.874228030E-02 0.726154028E-02 0.571214966E-02 0.421284046E-02 0.287121907E-02 0.176969205E-02 0.953493058E-03 0.423711288E-03 0.138498799E-03 0.247638072E-04 0.124810828E-09
0.146614897E-03 0.497780391E-03 0.118938799E-02 0.232592924E-02 0.395750208E-02 0.606880477E-02 0.858042482E-02 0.113595780E-01 0.142365359E-01 0.170233287E-01 0.195322074E-01 0.215922147E-01 0.230631437E-01 0.238463692E-01 0.238923896E-01 0.232048072E-01 0.218403488E-01 0.199044887E-01 0.175423417E-01 0.149250282E-01 0.122323623E-01 0.963384192E-02 0.727072032E-02 0.524234166E-02 0.359936780E-02 0.238816626E-02 0.152898615E-02 0.943063875E-03 0.559364678E-03 0.318410515E-03 0.173550769E-03 0.903414475E-04 0.447801795E-04 0.210646067E-04 0.936696870E-05 0.391983258E-05 0.153561666E-05 0.559726573E-06 0.188446748E-06 0.580953241E-07 0.162272809E-07 0.405353173E-08 0.890711838E-09 0.168506459E-09 0.266557887E-10 0.338088845E-11 0.344894360E-12 0.727948778E-11 0.121449883E-08 0.170959047E-08 0.134822405E-10 0.138961583E-12 0.906797749E-12 0.734327616E-11 0.477289909E-10 0.259635091E-09 0.121706523E-08 0.502310771E-08 0.185568894E-07 0.621697112E-07 0.190888059E-06 0.541853126E-06 0.143232671E-05 0.354751887E-05 0.827561962E-05 0.182649419E-04 0.382878861E-04 0.764873112E-04 0.146040649E-03 0.267192867E-03 0.469478546E-03 0.793781830E-03 0.129370217E-02 0.203554868E-02 0.309624826E-02 0.455857301E-02 0.639673136E-02 0.858008582E-02 0.110309226E-01 0.136269657E-01 0.162111931E-01 0.186071806E-01 0.206374358E-01 0.221418645E-01 0.229940750E-01 0.231140461E-01 0.224761479E-01 0.211127046E-01 0.191126503E-01 0.166157205E-01 0.138018196E-01 0.108759860E-01 0.804884080E-02 0.551350974E-02 0.342120952E-02 0.185898051E-02 0.834798615E-03 0.276521809E-03 0.503490774E-04 0.245869547E-09
0.275797793E-03 0.918610953E-03 0.216447050E-02 0.418481091E-02 0.705211563E-02 0.107272509E-01 0.150671517E-01 0.198464654E-01 0.247861631E-01 0.295833293E-01 0.339386463E-01 0.375796966E-01 0.402797684E-01 0.418722928E-01 0.422613844E-01 0.414285474E-01 0.394352265E-01 0.364203118E-01 0.325914547E-01 0.282092784E-01 0.235644337E-01 0.189491380E-01 0.146265216E-01 0.108030057E-01 0.760907168E-02 0.517416000E-02 0.339165609E-02 0.213960861E-02 0.129664782E-02 0.753356609E-03 0.418685144E-03 0.222009505E-03 0.111992136E-03 0.535657964E-04 0.241994439E-04 0.102804597E-04 0.408565757E-05 0.150978781E-05 0.515049578E-06 0.160811069E-06 0.454741844E-07 0.114964722E-07 0.255614840E-08 0.489247975E-09 0.782986592E-10 0.100477595E-10 0.995020255E-12 0.849286527E-11 0.140210077E-08 0.197203787E-08 0.156221720E-10 0.320371117E-12 0.273271119E-11 0.218813682E-10 0.140636308E-09 0.756544327E-09 0.350691143E-08 0.143109258E-07 0.522624966E-07 0.173029832E-06 0.524818518E-06 0.147094352E-05 0.383709084E-05 0.937258574E-05 0.215480468E-04 0.468345934E-04 0.966031948E-04 0.189721235E-03 0.355785392E-03 0.638701255E-03 0.110001990E-02 0.182111620E-02 0.290304353E-02 0.446284516E-02 0.662535988E-02 0.951022562E-02 0.130284568E-01 0.170857608E-01 0.215102341E-01 0.260645710E-01 0.304684788E-01 0.344269872E-01 0.376598835E-01 0.399281718E-01 0.410550497E-01 0.409405269E-01 0.395692512E-01 0.370129347E-01 0.334270038E-01 0.290421899E-01 0.241499729E-01 0.190819725E-01 0.141818682E-01 0.977044087E-02 0.610619364E-02 0.334650860E-02 0.151813996E-02 0.509092526E-03 0.941998660E-04 0.444616483E-09
0.484014949E-03 0.158269436E-02 0.367923360E-02 0.703353994E-02 0.117366565E-01 0.177014116E-01 0.246841442E-01 0.323250368E-01 0.401948690E-01 0.478395931E-01 0.548181310E-01 0.607319772E-01 0.652473941E-01 0.681117550E-01 0.691655874E-01 0.683515295E-01 0.657201707E-01 0.614315234E-01 0.557502396E-01 0.490317009E-01 0.416970178E-01 0.341968499E-01 0.269667618E-01 0.203805584E-01 0.147104412E-01 0.102427416E-01 0.686904276E-02 0.442924071E-02 0.274104625E-02 0.162471610E-02 0.920305203E-03 0.496907509E-03 0.255009072E-03 0.123976890E-03 0.568832547E-04 0.245234260E-04 0.988346346E-05 0.370133466E-05 0.127888870E-05 0.404220316E-06 0.115663312E-06 0.295779277E-07 0.665030209E-08 0.128692368E-08 0.208209394E-09 0.270102326E-10 0.266227014E-11 0.987664464E-11 0.160371239E-08 0.225372188E-08 0.179586155E-10 0.779974555E-12 0.744415900E-11 0.589869958E-10 0.375192710E-09 0.199736228E-08 0.916148135E-08 0.369865063E-07 0.133592152E-06 0.437293522E-06 0.131079582E-05 0.362890933E-05 0.934515083E-05 0.225199892E-04 0.510427235E-04 0.109289052E-03 0.221885188E-03 0.428549625E-03 0.789631857E-03 0.139146822E-02 0.235012849E-02 0.381166488E-02 0.594685087E-02 0.893880147E-02 0.129629597E-01 0.181606617E-01 0.243149307E-01 0.312103759E-01 0.385203362E-01 0.458370633E-01 0.527130514E-01 0.587054305E-01 0.634164587E-01 0.665257499E-01 0.678125247E-01 0.671689138E-01 0.646052808E-01 0.602504909E-01 0.543469675E-01 0.472409874E-01 0.393660329E-01 0.312180892E-01 0.233191643E-01 0.161682554E-01 0.101816561E-01 0.562908640E-02 0.257909368E-02 0.874818128E-03 0.164194891E-03 0.747509887E-09
0.800420763E-03 0.257106428E-02 0.589906517E-02 0.111509226E-01 0.184206702E-01 0.275340118E-01 0.380963944E-01 0.495627970E-01 0.613099150E-01 0.726988763E-01 0.831234679E-01 0.920438468E-01 0.990088731E-01 0.103670612E+00 0.105794892E+00 0.105270386E+00 0.102117285E+00 0.964944661E-01 0.887023360E-01 0.791766495E-01 0.684681088E-01 0.572044738E-01 0.460349098E-01 0.355625041E-01 0.262764785E-01 0.187179931E-01 0.128330430E-01 0.845291093E-02 0.533907255E-02 0.322710956E-02 0.186235644E-02 0.102355203E-02 0.534206105E-03 0.263900234E-03 0.122933954E-03 0.537673259E-04 0.219674621E-04 0.833432114E-05 0.291554647E-05 0.932487808E-06 0.269867456E-06 0.697711897E-07 0.158547397E-07 0.310005488E-08 0.506687137E-09 0.663972349E-10 0.656916535E-11 0.115242711E-10 0.182057147E-08 0.255632204E-08 0.205333146E-10 0.185992020E-11 0.185320630E-10 0.145433193E-09 0.916114573E-09 0.482947238E-08 0.219321201E-07 0.876438406E-07 0.313242424E-06 0.101419380E-05 0.300557440E-05 0.822205311E-05 0.209093905E-04 0.497264082E-04 0.111148860E-03 0.234512510E-03 0.468793529E-03 0.890731520E-03 0.161315885E-02 0.279149762E-02 0.462558726E-02 0.735364156E-02 0.112356208E-01 0.165248942E-01 0.234297458E-01 0.320695378E-01 0.420081057E-01 0.528341234E-01 0.639984161E-01 0.748710558E-01 0.848059133E-01 0.932006165E-01 0.995440409E-01 0.103448421E+00 0.104667179E+00 0.103102505E+00 0.988059118E-01 0.919764489E-01 0.829557404E-01 0.722205713E-01 0.603680424E-01 0.480905138E-01 0.361330137E-01 0.252292231E-01 0.160161220E-01 0.893436186E-02 0.413363660E-02 0.141721801E-02 0.269376644E-03 0.118084487E-08