<?xml version="1.0"?>
<VTKFile type="StructuredGrid">
<StructuredGrid WholeExtent="     0   100     0   100     0     0">
<Piece Extent="     0   100     0   100     0     0">
<Points>
<DataArray type="Float32" NumberOfComponents="3"/>
0.000000000E+00 0.000000000E+00 0.000000000E+00 0.199999996E-01 0.000000000E+00 0.000000000E+00 0.399999991E-01 0.000000000E+00 0.000000000E+00 0.599999987E-01 0.000000000E+00 0.000000000E+00 0.799999982E-01 0.000000000E+00 0.000000000E+00 0.100000001E+00 0.000000000E+00 0.000000000E+00 0.119999997E+00 0.000000000E+00 0.000000000E+00 0.140000001E+00 0.000000000E+00 0.000000000E+00 0.159999996E+00 0.000000000E+00 0.000000000E+00 0.180000007E+00 0.000000000E+00 0.000000000E+00 0.200000003E+00 0.000000000E+00 0.000000000E+00 0.219999999E+00 0.000000000E+00 0.000000000E+00 0.239999995E+00 0.000000000E+00 0.000000000E+00 0.259999990E+00 0.000000000E+00 0.000000000E+00 0.280000001E+00 0.000000000E+00 0.000000000E+00 0.300000012E+00 0.000000000E+00 0.000000000E+00 0.319999993E+00 0.000000000E+00 0.000000000E+00 0.340000004E+00 0.000000000E+00 0.000000000E+00 0.360000014E+00 0.000000000E+00 0.000000000E+00 0.379999995E+00 0.000000000E+00 0.000000000E+00 0.400000006E+00 0.000000000E+00 0.000000000E+00 0.419999987E+00 0.000000000E+00 0.000000000E+00 0.439999998E+00 0.000000000E+00 0.000000000E+00 0.460000008E+00 0.000000000E+00 0.000000000E+00 0.479999989E+00 0.000000000E+00 0.000000000E+00 0.500000000E+00 0.000000000E+00 0.000000000E+00 0.519999981E+00 0.000000000E+00 0.000000000E+00 0.540000021E+00 0.000000000E+00 0.000000000E+00 0.560000002E+00 0.000000000E+00 0.000000000E+00 0.579999983E+00 0.000000000E+00 0.000000000E+00 0.600000024E+00 0.000000000E+00 0.000000000E+00 0.620000005E+00 0.000000000E+00 0.000000000E+00 0.639999986E+00 0.000000000E+00 0.000000000E+00 0.660000026E+00 0.000000000E+00 0.000000000E+00 0.680000007E+00 0.000000000E+00 0.000000000E+00 0.699999988E+00 0.000000000E+00 0.000000000E+00 0.720000029E+00 0.000000000E+00 0.000000000E+00 0.740000010E+00 0.000000000E+00 0.000000000E+00 0.759999990E+00 0.000000000E+00 0.000000000E+00 0.779999971E+00 0.000000000E+00 0.000000000E+00 0.800000012E+00 0.000000000E+00 0.000000000E+00 0.819999993E+00 0.000000000E+00 0.000000000E+00 0.839999974E+00 0.000000000E+00 0.000000000E+00 0.860000014E+00 0.000000000E+00 0.000000000E+00 0.879999995E+00 0.000000000E+00 0.000000000E+00 0.899999976E+00 0.000000000E+00 0.000000000E+00 0.920000017E+00 0.000000000E+00 0.000000000E+00 0.939999998E+00 0.000000000E+00 0.000000000E+00 0.959999979E+00 0.000000000E+00 0.000000000E+00 0.980000019E+00 0.000000000E+00 0.000000000E+00 0.100000000E+01 0.000000000E+00 0.000000000E+00 0.101999998E+01 0.000000000E+00 0.000000000E+00 0.103999996E+01 0.000000000E+00 0.000000000E+00 0.105999994E+01 0.000000000E+00 0.000000000E+00 0.108000004E+01 0.000000000E+00 0.000000000E+00 0.110000002E+01 0.000000000E+00 0.000000000E+00 0.112000000E+01 0.000000000E+00 0.000000000E+00 0.113999999E+01 0.000000000E+00 0.000000000E+00 0.115999997E+01 0.000000000E+00 0.000000000E+00 0.117999995E+01 0.000000000E+00 0.000000000E+00 0.120000005E+01 0.000000000E+00 0.000000000E+00 0.122000003E+01 0.000000000E+00 0.000000000E+00 0.124000001E+01 0.000000000E+00 0.000000000E+00 0.125999999E+01 0.000000000E+00 0.000000000E+00 0.127999997E+01 0.000000000E+00 0.000000000E+00 0.129999995E+01 0.000000000E+00 0.000000000E+00 0.132000005E+01 0.000000000E+00 0.000000000E+00 0.134000003E+01 0.000000000E+00 0.000000000E+00 0.136000001E+01 0.000000000E+00 0.000000000E+00 0.138000000E+01 0.000000000E+00 0.000000000E+00 0.139999998E+01 0.000000000E+00 0.000000000E+00 0.141999996E+01 0.000000000E+00 0.000000000E+00 0.144000006E+01 0.000000000E+00 0.000000000E+00 0.146000004E+01 0.000000000E+00 0.000000000E+00 0.148000002E+01 0.000000000E+00 0.000000000E+00 0.150000000E+01 0.000000000E+00 0.000000000E+00 0.151999998E+01 0.000000000E+00 0.000000000E+00 0.153999996E+01 0.000000000E+00 0.000000000E+00 0.155999994E+01 0.000000000E+00 0.000000000E+00 0.158000004E+01 0.000000000E+00 0.000000000E+00 0.160000002E+01 0.000000000E+00 0.000000000E+00 0.162000000E+01 0.000000000E+00 0.000000000E+00 0.163999999E+01 0.000000000E+00 0.000000000E+00 0.165999997E+01 0.000000000E+00 0.000000000E+00 0.167999995E+01 0.000000000E+00 0.000000000E+00 0.170000005E+01 0.000000000E+00 0.000000000E+00 0.172000003E+01 0.000000000E+00 0.000000000E+00 0.174000001E+01 0.000000000E+00 0.000000000E+00 0.175999999E+01 0.000000000E+00 0.000000000E+00 0.177999997E+01 0.000000000E+00 0.000000000E+00 0.179999995E+01 0.000000000E+00 0.000000000E+00 0.182000005E+01 0.000000000E+00 0.000000000E+00 0.184000003E+01 0.000000000E+00 0.000000000E+00 0.186000001E+01 0.000000000E+00 0.000000000E+00 0.188000000E+01 0.000000000E+00 0.000000000E+00 0.189999998E+01 0.000000000E+00 0.000000000E+00 0.191999996E+01 0.000000000E+00 0.000000000E+00 0.194000006E+01 0.000000000E+00 0.000000000E+00 0.196000004E+01 0.000000000E+00 0.000000000E+00 0.198000002E+01 0.000000000E+00 0.000000000E+00 0.200000000E+01 0.000000000E+00 0.000000000E+00
0.000000000E+00 0.999999978E-02 0.000000000E+00 0.199999996E-01 0.999999978E-02 0.000000000E+00 0.399999991E-01 0.999999978E-02 0.000000000E+00 0.599999987E-01 0.999999978E-02 0.000000000E+00 0.799999982E-01 0.999999978E-02 0.000000000E+00 0.100000001E+00 0.999999978E-02 0.000000000E+00 0.119999997E+00 0.999999978E-02 0.000000000E+00 0.140000001E+00 0.999999978E-02 0.000000000E+00 0.159999996E+00 0.999999978E-02 0.000000000E+00 0.180000007E+00 0.999999978E-02 0.000000000E+00 0.200000003E+00 0.999999978E-02 0.000000000E+00 0.219999999E+00 0.999999978E-02 0.000000000E+00 0.239999995E+00 0.999999978E-02 0.000000000E+00 0.259999990E+00 0.999999978E-02 0.000000000E+00 0.280000001E+00 0.999999978E-02 0.000000000E+00 0.300000012E+00 0.999999978E-02 0.000000000E+00 0.319999993E+00 0.999999978E-02 0.000000000E+00 0.340000004E+00 0.999999978E-02 0.000000000E+00 0.360000014E+00 0.999999978E-02 0.000000000E+00 0.379999995E+00 0.999999978E-02 0.000000000E+00 0.400000006E+00 0.999999978E-02 0.000000000E+00 0.419999987E+00 0.999999978E-02 0.000000000E+00 0.439999998E+00 0.999999978E-02 0.000000000E+00 0.460000008E+00 0.999999978E-02 0.000000000E+00 0.479999989E+00 0.999999978E-02 0.000000000E+00 0.500000000E+00 0.999999978E-02 0.000000000E+00 0.519999981E+00 0.999999978E-02 0.000000000E+00 0.540000021E+00 0.999999978E-02 0.000000000E+00 0.560000002E+00 0.999999978E-02 0.000000000E+00 0.579999983E+00 0.999999978E-02 0.000000000E+00 0.600000024E+00 0.999999978E-02 0.000000000E+00 0.620000005E+00 0.999999978E-02 0.000000000E+00 0.639999986E+00 0.999999978E-02 0.000000000E+00 0.660000026E+00 0.999999978E-02 0.000000000E+00 0.680000007E+00 0.999999978E-02 0.000000000E+00 0.699999988E+00 0.999999978E-02 0.000000000E+00 0.720000029E+00 0.999999978E-02 0.000000000E+00 0.740000010E+00 0.999999978E-02 0.000000000E+00 0.759999990E+00 0.999999978E-02 0.000000000E+00 0.779999971E+00 0.999999978E-02 0.000000000E+00 0.800000012E+00 0.999999978E-02 0.000000000E+00 0.819999993E+00 0.999999978E-02 0.000000000E+00 0.839999974E+00 0.999999978E-02 0.000000000E+00 0.860000014E+00 0.999999978E-02 0.000000000E+00 0.879999995E+00 0.999999978E-02 0.000000000E+00 0.899999976E+00 0.999999978E-02 0.000000000E+00 0.920000017E+00 0.999999978E-02 0.000000000E+00 0.939999998E+00 0.999999978E-02 0.000000000E+00 0.959999979E+00 0.999999978E-02 0.000000000E+00 0.980000019E+00 0.999999978E-02 0.000000000E+00 0.100000000E+01 0.999999978E-02 0.000000000E+00 0.101999998E+01 0.999999978E-02 0.000000000E+00 0.103999996E+01 0.999999978E-02 0.000000000E+00 0.105999994E+01 0.999999978E-02 0.000000000E+00 0.108000004E+01 0.999999978E-02 0.000000000E+00 0.110000002E+01 0.999999978E-02 0.000000000E+00 0.112000000E+01 0.999999978E-02 0.000000000E+00 0.113999999E+01 0.999999978E-02 0.000000000E+00 0.115999997E+01 0.999999978E-02 0.000000000E+00 0.117999995E+01 0.999999978E-02 0.000000000E+00 0.120000005E+01 0.999999978E-02 0.000000000E+00 0.122000003E+01 0.999999978E-02 0.000000000E+00 0.124000001E+01 0.999999978E-02 0.000000000E+00 0.125999999E+01 0.999999978E-02 0.000000000E+00 0.127999997E+01 0.999999978E-02 0.000000000E+00 0.129999995E+01 0.999999978E-02 0.000000000E+00 0.132000005E+01 0.999999978E-02 0.000000000E+00 0.134000003E+01 0.999999978E-02 0.000000000E+00 0.136000001E+01 0.999999978E-02 0.000000000E+00 0.138000000E+01 0.999999978E-02 0.000000000E+00 0.139999998E+01 0.999999978E-02 0.000000000E+00 0.141999996E+01 0.999999978E-02 0.000000000E+00 0.144000006E+01 0.999999978E-02 0.000000000E+00 0.146000004E+01 0.999999978E-02 0.000000000E+00 0.148000002E+01 0.999999978E-02 0.000000000E+00 0.150000000E+01 0.999999978E-02 0.000000000E+00 0.151999998E+01 0.999999978E-02 0.000000000E+00 0.153999996E+01 0.999999978E-02 0.000000000E+00 0.155999994E+01 0.999999978E-02 0.000000000E+00 0.158000004E+01 0.999999978E-02 0.000000000E+00 0.160000002E+01 0.999999978E-02 0.000000000E+00 0.162000000E+01 0.999999978E-02 0.000000000E+00 0.163999999E+01 0.999999978E-02 0.000000000E+00 0.165999997E+01 0.999999978E-02 0.000000000E+00 0.167999995E+01 0.999999978E-02 0.000000000E+00 0.170000005E+01 0.999999978E-02 0.000000000E+00 0.172000003E+01 0.999999978E-02 0.000000000E+00 0.174000001E+01 0.999999978E-02 0.000000000E+00 0.175999999E+01 0.999999978E-02 0.000000000E+00 0.177999997E+01 0.999999978E-02 0.000000000E+00 0.179999995E+01 0.999999978E-02 0.000000000E+00 0.182000005E+01 0.999999978E-02 0.000000000E+00 0.184000003E+01 0.999999978E-02 0.000000000E+00 0.186000001E+01 0.999999978E-02 0.000000000E+00 0.188000000E+01 0.999999978E-02 0.000000000E+00 0.189999998E+01 0.999999978E-02 0.000000000E+00 0.191999996E+01 0.999999978E-02 0.000000000E+00 0.194000006E+01 0.999999978E-02 0.000000000E+00 0.196000004E+01 0.999999978E-02 0.000000000E+00 0.198000002E+01 0.999999978E-02 0.000000000E+00 0.200000000E+01 0.999999978E-02 0.000000000E+00
[...]
<CellData Scalars="Temperature, U, V">
<DataArray type="Float32" Name="Temp, K"/>
0.921740866E-05 0.241000835E-04 0.456295784E-04 0.739313400E-04 0.108271583E-03 0.147150611E-03 0.188471458E-03 0.229758836E-03 0.268403237E-03 0.301905384E-03 0.328099530E-03 0.345337845E-03 0.352622301E-03 0.349674257E-03 0.336938305E-03 0.315521611E-03 0.287074916E-03 0.253626786E-03 0.217388457E-03 0.180549367E-03 0.145085593E-03 0.112602982E-03 0.842329173E-04 0.605915484E-04 0.418039563E-04 0.283753088E-04 0.189191560E-04 0.123692653E-04 0.791445564E-05 0.494520191E-05 0.300998204E-05 0.177972061E-05 0.101900059E-05 0.562942887E-06 0.298829121E-06 0.151696369E-06 0.732336076E-07 0.334046462E-07 0.142866954E-07 0.567682301E-08 0.207257544E-08 0.685828339E-09 0.202187503E-09 0.519336137E-10 0.112781633E-10 0.198365283E-11 0.264336621E-12 0.699424785E-13 0.190911332E-10 0.269823053E-10 0.946359487E-13 0.849687820E-13 0.655446292E-12 0.383605604E-11 0.181816923E-10 0.728493654E-10 0.254275434E-09 0.790561228E-09 0.222728147E-08 0.576430015E-08 0.138567691E-07 0.312246584E-07 0.664638478E-07 0.134507815E-06 0.260253728E-06 0.483740678E-06 0.867357642E-06 0.150566086E-05 0.253851658E-05 0.416843886E-05 0.668321263E-05 0.104851288E-04 0.161285334E-04 0.243677950E-04 0.362183600E-04 0.530343495E-04 0.745544385E-04 0.100854617E-03 0.131564258E-03 0.165808335E-03 0.202207302E-03 0.238939872E-03 0.273866928E-03 0.304703572E-03 0.329222297E-03 0.345467066E-03 0.351952418E-03 0.347832392E-03 0.333015458E-03 0.308216346E-03 0.274931459E-03 0.235341446E-03 0.192138905E-03 0.148290419E-03 0.106754509E-03 0.701752506E-04 0.405816718E-04 0.191292584E-04 0.592635070E-05 0.614916174E-10
0.424808313E-04 0.108980290E-03 0.203485688E-03 0.326402282E-03 0.474702480E-03 0.642389234E-03 0.821185997E-03 0.100136059E-02 0.117260544E-02 0.132489833E-02 0.144929183E-02 0.153857865E-02 0.158780429E-02 0.159459421E-02 0.155928731E-02 0.148485939E-02 0.137664704E-02 0.124188478E-02 0.108908804E-02 0.927329005E-03 0.765472359E-03 0.611446623E-03 0.471634092E-03 0.350454357E-03 0.250195561E-03 0.175377776E-03 0.120523495E-03 0.810682177E-04 0.532725535E-04 0.341287960E-04 0.212654795E-04 0.128528791E-04 0.751222387E-05 0.423116353E-05 0.228731597E-05 0.118126081E-05 0.579648656E-06 0.268548064E-06 0.116586669E-06 0.470039012E-07 0.174073183E-07 0.584235016E-08 0.174708525E-08 0.455318450E-09 0.100372766E-09 0.179325981E-10 0.242905262E-11 0.315315834E-12 0.387732763E-10 0.547718364E-10 0.247431280E-12 0.794101980E-12 0.603287038E-11 0.347629044E-10 0.162352687E-09 0.641372178E-09 0.220815144E-08 0.677327039E-08 0.188275973E-07 0.480689799E-07 0.113958507E-06 0.253131958E-06 0.530800037E-06 0.105744630E-05 0.201225293E-05 0.367473490E-05 0.646604667E-05 0.110012725E-04 0.181538908E-04 0.291332199E-04 0.455754198E-04 0.696481875E-04 0.104168757E-03 0.152734778E-03 0.219866532E-03 0.311159733E-03 0.423434045E-03 0.555416220E-03 0.703762344E-03 0.863060879E-03 0.102608313E-02 0.118426012E-02 0.132833340E-02 0.144910673E-02 0.153822906E-02 0.158893201E-02 0.159665057E-02 0.155949884E-02 0.147853501E-02 0.135781604E-02 0.120420172E-02 0.102694170E-02 0.837026862E-03 0.646333443E-03 0.466617406E-03 0.308411662E-03 0.179907700E-03 0.859418142E-04 0.272370344E-04 0.272570855E-09
0.148476887E-03 0.374669209E-03 0.691096473E-03 0.109856215E-02 0.158719753E-02 0.213825284E-02 0.272635743E-02 0.332198897E-02 0.389396679E-02 0.441180030E-02 0.484779570E-02 0.517884176E-02 0.538782263E-02 0.546462229E-02 0.540668471E-02 0.521911727E-02 0.491430378E-02 0.451102620E-02 0.403312501E-02 0.350772799E-02 0.296317833E-02 0.242680358E-02 0.192275411E-02 0.147015881E-02 0.108185853E-02 0.780165079E-03 0.550558558E-03 0.379610457E-03 0.255282095E-03 0.167101171E-03 0.106225321E-03 0.654096511E-04 0.388987719E-04 0.222656763E-04 0.122191605E-04 0.640001554E-05 0.318239518E-05 0.149298705E-05 0.655961287E-06 0.267530140E-06 0.100198619E-06 0.340064226E-07 0.102838991E-07 0.271102429E-08 0.604772732E-09 0.109406373E-09 0.150172565E-10 0.153080413E-11 0.591371119E-10 0.834547847E-10 0.717660631E-12 0.498557966E-11 0.373834991E-10 0.212751775E-09 0.982062764E-09 0.383665855E-08 0.130676110E-07 0.396619235E-07 0.109090550E-06 0.275556715E-06 0.646123283E-06 0.141886721E-05 0.293963762E-05 0.578192567E-05 0.108536515E-04 0.195331995E-04 0.338348691E-04 0.566008275E-04 0.917134093E-04 0.144317324E-03 0.221037961E-03 0.330177601E-03 0.481869531E-03 0.688166590E-03 0.963042316E-03 0.132228248E-02 0.174852554E-02 0.223238650E-02 0.275794300E-02 0.330348476E-02 0.384293334E-02 0.434775045E-02 0.478910841E-02 0.514010945E-02 0.537786074E-02 0.548526272E-02 0.545237353E-02 0.527734775E-02 0.496683130E-02 0.453585666E-02 0.400713878E-02 0.340988324E-02 0.277801789E-02 0.214787596E-02 0.155544817E-02 0.103328400E-02 0.607206952E-03 0.293142395E-03 0.944946951E-04 0.909215481E-09
0.404171005E-03 0.100383023E-02 0.182983093E-02 0.288254069E-02 0.413616234E-02 0.554420287E-02 0.704544410E-02 0.856987201E-02 0.100442432E-01 0.113970516E-01 0.125628086E-01 0.134855779E-01 0.141218025E-01 0.144424122E-01 0.144342296E-01 0.141006513E-01 0.134615367E-01 0.125522455E-01 0.114217354E-01 0.101296743E-01 0.874258112E-02 0.732916221E-02 0.595514802E-02 0.467813900E-02 0.354309450E-02 0.262563326E-02 0.190120214E-02 0.134306145E-02 0.924026070E-03 0.617935904E-03 0.400783349E-03 0.251469784E-03 0.152200839E-03 0.885649788E-04 0.493579028E-04 0.262282356E-04 0.132203086E-04 0.628226189E-05 0.279404958E-05 0.115292698E-05 0.436716221E-06 0.149866239E-06 0.458213698E-07 0.122135457E-07 0.275550249E-08 0.504344677E-09 0.700807745E-10 0.675313017E-11 0.803842756E-10 0.113156762E-09 0.251353560E-11 0.236075569E-10 0.174877238E-09 0.983835458E-09 0.449174209E-08 0.173624723E-07 0.585224349E-07 0.175785701E-06 0.478442701E-06 0.119556591E-05 0.277220147E-05 0.601685088E-05 0.123128311E-04 0.239024630E-04 0.442461132E-04 0.784479853E-04 0.133727794E-03 0.219902737E-03 0.349830691E-03 0.539752189E-03 0.809462741E-03 0.118224311E-02 0.168448512E-02 0.234496314E-02 0.319373142E-02 0.426065875E-02 0.548320170E-02 0.682464428E-02 0.823390763E-02 0.964899361E-02 0.110015124E-01 0.122216726E-01 0.132432599E-01 0.140081570E-01 0.144701544E-01 0.145979552E-01 0.143771879E-01 0.138116516E-01 0.129235731E-01 0.117530590E-01 0.103564998E-01 0.880417414E-02 0.717670843E-02 0.556036923E-02 0.404128432E-02 0.269862195E-02 0.159691693E-02 0.778112037E-03 0.254290440E-03 0.234055775E-08
0.917960191E-03 0.224502943E-02 0.404523173E-02 0.631497428E-02 0.899647176E-02 0.119917644E-01 0.151762031E-01 0.184106287E-01 0.215518530E-01 0.244613644E-01 0.270123407E-01 0.290951189E-01 0.306214858E-01 0.315278880E-01 0.317778103E-01 0.313633606E-01 0.303060226E-01 0.286564007E-01 0.264927372E-01 0.239178557E-01 0.210542176E-01 0.180369820E-01 0.150051061E-01 0.120910825E-01 0.941030029E-02 0.715756137E-02 0.531301694E-02 0.384289026E-02 0.270373444E-02 0.184678007E-02 0.122196332E-02 0.781286682E-03 0.481322029E-03 0.284783804E-03 0.161217147E-03 0.869403957E-04 0.444347170E-04 0.213940511E-04 0.963421462E-05 0.402293836E-05 0.154135705E-05 0.534842570E-06 0.165318212E-06 0.445447945E-07 0.101600035E-07 0.188043781E-08 0.264323813E-09 0.252836849E-10 0.103026518E-09 0.144110002E-09 0.877652378E-11 0.902773203E-10 0.661185495E-09 0.367949116E-08 0.166229324E-07 0.635943422E-07 0.212161424E-06 0.630705586E-06 0.169854354E-05 0.419830531E-05 0.962449667E-05 0.206408149E-04 0.417087758E-04 0.798896799E-04 0.145791026E-03 0.254588958E-03 0.427016668E-03 0.690166606E-03 0.107793126E-02 0.163089077E-02 0.239548529E-02 0.342234015E-02 0.476371264E-02 0.647010794E-02 0.858625304E-02 0.111467233E-01 0.139829833E-01 0.169941094E-01 0.200565346E-01 0.230333321E-01 0.257841833E-01 0.281748213E-01 0.300853085E-01 0.314166769E-01 0.320959389E-01 0.320795514E-01 0.313554108E-01 0.299439132E-01 0.278977882E-01 0.253010560E-01 0.222665779E-01 0.189325474E-01 0.154570937E-01 0.120106200E-01 0.876586791E-02 0.588531559E-02 0.350595755E-02 0.172223791E-02 0.568928197E-03 0.498746378E-08
0.181820209E-02 0.437999237E-02 0.780257490E-02 0.120696397E-01 0.170658417E-01 0.226081405E-01 0.284727663E-01 0.344174169E-01 0.401986092E-01 0.455847122E-01 0.503655560E-01 0.543590337E-01 0.574159659E-01 0.594235100E-01 0.603078566E-01 0.600364134E-01 0.586197376E-01 0.561128594E-01 0.526156984E-01 0.482719354E-01 0.432653576E-01 0.378128998E-01 0.321536362E-01 0.265335962E-01 0.211873055E-01 0.165200289E-01 0.125592398E-01 0.929474551E-02 0.668445230E-02 0.466224412E-02 0.314679253E-02 0.205023913E-02 0.128580513E-02 0.773700944E-03 0.445017358E-03 0.243615941E-03 0.126287530E-03 0.616239558E-04 0.281053672E-04 0.118786702E-04 0.460421325E-05 0.161557489E-05 0.504824811E-06 0.137485856E-06 0.316937445E-07 0.592916383E-08 0.842600600E-09 0.810169293E-10 0.128305117E-09 0.176796869E-09 0.277114720E-10 0.291573182E-09 0.211272733E-08 0.116359695E-07 0.520357979E-07 0.197069298E-06 0.650792629E-06 0.191467552E-05 0.510156906E-05 0.124703638E-04 0.282577221E-04 0.598653860E-04 0.119416734E-03 0.225622818E-03 0.405801693E-03 0.697787502E-03 0.115137233E-02 0.182885921E-02 0.280430564E-02 0.416110503E-02 0.598772196E-02 0.837160368E-02 0.113915997E-01 0.151095046E-01 0.195615478E-01 0.247509032E-01 0.303135514E-01 0.360332876E-01 0.416700281E-01 0.469777770E-01 0.517208911E-01 0.556874014E-01 0.586990006E-01 0.606178381E-01 0.613506921E-01 0.608514585E-01 0.591219366E-01 0.562124662E-01 0.522214286E-01 0.472944900E-01 0.416222475E-01 0.354369208E-01 0.290060397E-01 0.226224121E-01 0.165895876E-01 0.112016154E-01 0.671635475E-02 0.332304649E-02 0.110673846E-02 0.920776166E-08
0.323841721E-02 0.768544804E-02 0.135368807E-01 0.207468960E-01 0.291052572E-01 0.383000374E-01 0.479666293E-01 0.577242263E-01 0.672016442E-01 0.760544240E-01 0.839755163E-01 0.907011256E-01 0.960139334E-01 0.997447595E-01 0.101773798E+00 0.102032244E+00 0.100504704E+00 0.972324163E-01 0.923167691E-01 0.859224796E-01 0.782786682E-01 0.696763471E-01 0.604599081E-01 0.510110632E-01 0.417246819E-01 0.333086513E-01 0.259102564E-01 0.196065623E-01 0.144061120E-01 0.102572190E-01 0.706115039E-02 0.468805712E-02 0.299328682E-02 0.183204573E-02 0.107088382E-02 0.595247489E-03 0.313054567E-03 0.154860187E-03 0.715482383E-04 0.306137190E-04 0.120059249E-04 0.426040469E-05 0.134580341E-05 0.370420878E-06 0.862850627E-07 0.163102278E-07 0.234221642E-08 0.227126429E-09 0.158945163E-09 0.212213636E-09 0.778712372E-10 0.820650436E-09 0.588638649E-08 0.320983773E-07 0.142129551E-06 0.532938316E-06 0.174221088E-05 0.507260211E-05 0.133705953E-04 0.323169697E-04 0.723684716E-04 0.151415865E-03 0.298082799E-03 0.555388862E-03 0.984269544E-03 0.166622770E-02 0.270426064E-02 0.422119023E-02 0.635472732E-02 0.924894493E-02 0.130424034E-01 0.178537443E-01 0.237662438E-01 0.308132246E-01 0.389663614E-01 0.481289476E-01 0.576431341E-01 0.671275780E-01 0.761928037E-01 0.844674632E-01 0.916183814E-01 0.973639265E-01 0.101481535E+00 0.103811018E+00 0.104255214E+00 0.102779716E+00 0.994118229E-01 0.942410380E-01 0.874194354E-01 0.791630223E-01 0.697517619E-01 0.595291406E-01 0.488976724E-01 0.383084826E-01 0.282432269E-01 0.191851743E-01 0.115770083E-01 0.576480431E-02 0.193136476E-02 0.152081618E-07
0.530345645E-02 0.124000739E-01 0.215961598E-01 0.327891968E-01 0.456235521E-01 0.596053675E-01 0.741844252E-01 0.888093635E-01 0.102962315E+00 0.116178222E+00 0.128053755E+00 0.138249144E+00 0.146486521E+00 0.152546853E+00 0.156267151E+00 0.157539427E+00 0.156311914E+00 0.152593285E+00 0.146459401E+00 0.138062119E+00 0.127638265E+00 0.115516491E+00 0.102118053E+00 0.879478604E-01 0.735719502E-01 0.600559860E-01 0.477540717E-01 0.369218215E-01 0.277030338E-01 0.201291405E-01 0.141309323E-01 0.955980644E-02 0.621456373E-02 0.386937708E-02 0.229891902E-02 0.129775703E-02 0.692592410E-03 0.347393245E-03 0.162624434E-03 0.704553167E-04 0.279600572E-04 0.100346961E-04 0.320441359E-05 0.891288494E-06 0.209749018E-06 0.400495388E-07 0.580922643E-08 0.568554925E-09 0.200333541E-09 0.252291354E-09 0.196442182E-09 0.205967421E-08 0.146317429E-07 0.790245664E-07 0.346554316E-06 0.128677061E-05 0.416435114E-05 0.119989636E-04 0.312849734E-04 0.747581871E-04 0.165409394E-03 0.341724779E-03 0.663779560E-03 0.121936435E-02 0.212888024E-02 0.354741747E-02 0.566239981E-02 0.868546125E-02 0.128379986E-01 0.183308292E-01 0.253397152E-01 0.339795426E-01 0.442808270E-01 0.561723635E-01 0.694733486E-01 0.838969946E-01 0.984196812E-01 0.112469189E+00 0.125504777E+00 0.137046337E+00 0.146691218E+00 0.154120803E+00 0.159100205E+00 0.161474004E+00 0.161161065E+00 0.158150658E+00 0.152500048E+00 0.144336134E+00 0.133858815E+00 0.121347420E+00 0.107166514E+00 0.917724967E-01 0.757151544E-01 0.596309938E-01 0.442246906E-01 0.302323103E-01 0.183601864E-01 0.919591077E-02 0.309336209E-02 0.230098145E-07
0.811977778E-02 0.187034998E-01 0.322091691E-01 0.484385788E-01 0.668269992E-01 0.866386518E-01 0.107094027E+00 0.127447039E+00 0.147026986E+00 0.165256143E+00 0.181652516E+00 0.195823044E+00 0.207453489E+00 0.216297016E+00 0.222164750E+00 0.224919379E+00 0.224473074E+00 0.220790640E+00 0.213898122E+00 0.203896716E+00 0.190980852E+00 0.175457627E+00 0.157763451E+00 0.138471633E+00 0.118283205E+00 0.986045375E-01 0.800682083E-01 0.632050559E-01 0.484018885E-01 0.358772799E-01 0.256786756E-01 0.176998936E-01 0.117148580E-01 0.742059248E-02 0.448174821E-02 0.256977160E-02 0.139190536E-02 0.708020583E-03 0.335875578E-03 0.147356215E-03 0.591795979E-04 0.214813790E-04 0.693435777E-05 0.194888662E-05 0.463263319E-06 0.893255105E-07 0.130821842E-07 0.129222455E-08 0.262135980E-09 0.300486552E-09 0.450661924E-09 0.469104844E-08 0.330192051E-07 0.176688616E-06 0.767584652E-06 0.282264000E-05 0.904383614E-05 0.257878655E-04 0.665051921E-04 0.157100891E-03 0.343404070E-03 0.700405857E-03 0.134217413E-02 0.243052025E-02 0.417981343E-02 0.685507478E-02 0.107609322E-01 0.162201095E-01 0.235421378E-01 0.329849496E-01 0.447144248E-01 0.587679707E-01 0.750287697E-01 0.932161361E-01 0.112894699E+00 0.133502305E+00 0.153640956E+00 0.172565714E+00 0.189625815E+00 0.204285711E+00 0.216129124E+00 0.224851191E+00 0.230245486E+00 0.232189626E+00 0.230633631E+00 0.225593388E+00 0.217147902E+00 0.205444634E+00 0.190708429E+00 0.173256218E+00 0.153512910E+00 0.132029817E+00 0.109498166E+00 0.867524818E-01 0.647573173E-01 0.445662178E-01 0.272404663E-01 0.137174428E-01 0.462594396E-02 0.324666694E-07
0.117705567E-01 0.267081149E-01 0.454773381E-01 0.677334294E-01 0.926271304E-01 0.119117677E+00 0.146158367E+00 0.172796711E+00 0.198218942E+00 0.221759826E+00 0.242892876E+00 0.261210173E+00 0.276399434E+00 0.288221568E+00 0.296491891E+00 0.301066428E+00 0.301834583E+00 0.298718542E+00 0.291681558E+00 0.280744404E+00 0.266010612E+00 0.247699171E+00 0.226179719E+00 0.202004373E+00 0.175924778E+00 0.149582848E+00 0.123913340E+00 0.997914076E-01 0.779509470E-01 0.589201190E-01 0.429843962E-01 0.301831271E-01 0.203380417E-01 0.131064178E-01 0.804713555E-02 0.468706060E-02 0.257684011E-02 0.132940558E-02 0.639137637E-03 0.283970498E-03 0.115416689E-03 0.423717829E-04 0.138258529E-04 0.392579068E-05 0.942412782E-06 0.183449387E-06 0.271170730E-07 0.270260814E-08 0.360248109E-09 0.362514102E-09 0.951664858E-09 0.982910731E-08 0.685789487E-07 0.363703805E-06 0.156558247E-05 0.570260590E-05 0.180909683E-04 0.510512582E-04 0.130223721E-03 0.304083136E-03 0.656616292E-03 0.132203649E-02 0.249902532E-02 0.446067192E-02 0.755551225E-02 0.121953227E-01 0.188269932E-01 0.278885514E-01 0.397532880E-01 0.546693206E-01 0.727047548E-01 0.937087610E-01 0.117297500E+00 0.142869338E+00 0.169648394E+00 0.196750104E+00 0.222478807E+00 0.245985910E+00 0.266591996E+00 0.283786893E+00 0.297211170E+00 0.306628674E+00 0.311898500E+00 0.312951088E+00 0.309771627E+00 0.302392423E+00 0.290892363E+00 0.275408119E+00 0.256150842E+00 0.233432472E+00 0.207695022E+00 0.179546624E+00 0.149793610E+00 0.119462423E+00 0.898006111E-01 0.622391701E-01 0.382936783E-01 0.193819217E-01 0.654465612E-02 0.433150866E-07
0.163147915E-01 0.364607312E-01 0.613843538E-01 0.905323997E-01 0.122686982E+00 0.156441092E+00 0.190454096E+00 0.223571658E+00 0.254864573E+00 0.283621699E+00 0.309320480E+00 0.331587702E+00 0.350160569E+00 0.364851087E+00 0.375516593E+00 0.382037908E+00 0.384305239E+00 0.382212549E+00 0.375662386E+00 0.364581645E+00 0.348949820E+00 0.328840911E+00 0.304476172E+00 0.276282400E+00 0.244944036E+00 0.212156624E+00 0.179111749E+00 0.147039875E+00 0.117089204E+00 0.902090296E-01 0.670587867E-01 0.479595922E-01 0.328962430E-01 0.215659589E-01 0.134607088E-01 0.796424784E-02 0.444441848E-02 0.232557952E-02 0.113313331E-02 0.509857899E-03 0.209712787E-03 0.778616813E-04 0.256781386E-04 0.736519542E-05 0.178515086E-05 0.350712327E-06 0.523044612E-07 0.525775468E-08 0.518832421E-09 0.447136939E-09 0.186905003E-08 0.191545748E-07 0.132527134E-06 0.696813458E-06 0.297277984E-05 0.107277292E-04 0.337009587E-04 0.941245016E-04 0.237490589E-03 0.548189390E-03 0.116932532E-02 0.232402701E-02 0.433332147E-02 0.762388948E-02 0.127186300E-01 0.202046353E-01 0.306771994E-01 0.446638130E-01 0.625385940E-01 0.844414234E-01 0.110218577E+00 0.139398485E+00 0.171210408E+00 0.204645351E+00 0.238549218E+00 0.271731853E+00 0.302359164E+00 0.329588920E+00 0.352818549E+00 0.371652246E+00 0.385854542E+00 0.395302385E+00 0.399943829E+00 0.399767488E+00 0.394783974E+00 0.385020196E+00 0.370522827E+00 0.351376384E+00 0.327729493E+00 0.299834162E+00 0.268091768E+00 0.233111084E+00 0.195766658E+00 0.157249168E+00 0.119093314E+00 0.831562132E-01 0.515088923E-01 0.261988752E-01 0.884968229E-02 0.552308315E-07
0.217889659E-01 0.479502566E-01 0.798155293E-01 0.116552047E+00 0.156484678E+00 0.197786495E+00 0.238812447E+00 0.278230280E+00 0.315040916E+00 0.348543316E+00 0.378276944E+00 0.403958529E+00 0.425425142E+00 0.442583919E+00 0.455373079E+00 0.463731974E+00 0.467580199E+00 0.466806918E+00 0.461269885E+00 0.450807065E+00 0.435263157E+00 0.414533883E+00 0.388630241E+00 0.357759118E+00 0.322412223E+00 0.284114808E+00 0.244199783E+00 0.204189196E+00 0.165648118E+00 0.130015880E+00 0.984468311E-01 0.716925114E-01 0.500484928E-01 0.333739370E-01 0.211744793E-01 0.127257416E-01 0.720806280E-02 0.382528850E-02 0.188889343E-02 0.860674190E-03 0.358227495E-03 0.134492919E-03 0.448227256E-04 0.129843302E-04 0.317672266E-05 0.629684450E-06 0.947128669E-07 0.959873425E-08 0.772065523E-09 0.566879210E-09 0.344354478E-08 0.350261544E-07 0.240411254E-06 0.125361669E-05 0.530206444E-05 0.189596212E-04 0.589903684E-04 0.163083721E-03 0.407054962E-03 0.928851892E-03 0.195729057E-02 0.384015776E-02 0.706307683E-02 0.122487191E-01 0.201268923E-01 0.314704850E-01 0.470000505E-01 0.672686696E-01 0.925472751E-01 0.122733951E+00 0.157309562E+00 0.195353031E+00 0.235617563E+00 0.276655108E+00 0.316965312E+00 0.355141431E+00 0.389425337E+00 0.419110090E+00 0.443775296E+00 0.463216245E+00 0.477369577E+00 0.486249000E+00 0.489896208E+00 0.488348484E+00 0.481621742E+00 0.469708651E+00 0.452587247E+00 0.430245936E+00 0.402718723E+00 0.370137721E+00 0.332796961E+00 0.291236043E+00 0.246331841E+00 0.199388862E+00 0.152209759E+00 0.107108220E+00 0.668062046E-01 0.341435336E-01 0.115293451E-01 0.678774512E-07