<?xml version="1.0"?>
<VTKFile type="StructuredGrid">
<StructuredGrid WholeExtent="     0   100     0   100     0     0">
<Piece Extent="     0   100     0   100     0     0">
<Points>
<DataArray type="Float32" NumberOfComponents="3"/>
0.000000000E+00 0.000000000E+00 0.000000000E+00 0.199999996E-01 0.000000000E+00 0.000000000E+00 0.399999991E-01 0.000000000E+00 0.000000000E+00 0.599999987E-01 0.000000000E+00 0.000000000E+00 0.799999982E-01 0.000000000E+00 0.000000000E+00 0.100000001E+00 0.000000000E+00 0.000000000E+00 0.119999997E+00 0.000000000E+00 0.000000000E+00 0.140000001E+00 0.000000000E+00 0.000000000E+00 0.159999996E+00 0.000000000E+00 0.000000000E+00 0.180000007E+00 0.000000000E+00 0.000000000E+00 0.200000003E+00 0.000000000E+00 0.000000000E+00 0.219999999E+00 0.000000000E+00 0.000000000E+00 0.239999995E+00 0.000000000E+00 0.000000000E+00 0.259999990E+00 0.000000000E+00 0.000000000E+00 0.280000001E+00 0.000000000E+00 0.000000000E+00 0.300000012E+00 0.000000000E+00 0.000000000E+00 0.319999993E+00 0.000000000E+00 0.000000000E+00 0.340000004E+00 0.000000000E+00 0.000000000E+00 0.360000014E+00 0.000000000E+00 0.000000000E+00 0.379999995E+00 0.000000000E+00 0.000000000E+00 0.400000006E+00 0.000000000E+00 0.000000000E+00 0.419999987E+00 0.000000000E+00 0.000000000E+00 0.439999998E+00 0.000000000E+00 0.000000000E+00 0.460000008E+00 0.000000000E+00 0.000000000E+00 0.479999989E+00 0.000000000E+00 0.000000000E+00 0.500000000E+00 0.000000000E+00 0.000000000E+00 0.519999981E+00 0.000000000E+00 0.000000000E+00 0.540000021E+00 0.000000000E+00 0.000000000E+00 0.560000002E+00 0.000000000E+00 0.000000000E+00 0.579999983E+00 0.000000000E+00 0.000000000E+00 0.600000024E+00 0.000000000E+00 0.000000000E+00 0.620000005E+00 0.000000000E+00 0.000000000E+00 0.639999986E+00 0.000000000E+00 0.000000000E+00 0.660000026E+00 0.000000000E+00 0.000000000E+00 0.680000007E+00 0.000000000E+00 0.000000000E+00 0.699999988E+00 0.000000000E+00 0.000000000E+00 0.720000029E+00 0.000000000E+00 0.000000000E+00 0.740000010E+00 0.000000000E+00 0.000000000E+00 0.759999990E+00 0.000000000E+00 0.000000000E+00 0.779999971E+00 0.000000000E+00 0.000000000E+00 0.800000012E+00 0.000000000E+00 0.000000000E+00 0.819999993E+00 0.000000000E+00 0.000000000E+00 0.839999974E+00 0.000000000E+00 0.000000000E+00 0.860000014E+00 0.000000000E+00 0.000000000E+00 0.879999995E+00 0.000000000E+00 0.000000000E+00 0.899999976E+00 0.000000000E+00 0.000000000E+00 0.920000017E+00 0.000000000E+00 0.000000000E+00 0.939999998E+00 0.000000000E+00 0.000000000E+00 0.959999979E+00 0.000000000E+00 0.000000000E+00 0.980000019E+00 0.000000000E+00 0.000000000E+00 0.100000000E+01 0.000000000E+00 0.000000000E+00 0.101999998E+01 0.000000000E+00 0.000000000E+00 0.103999996E+01 0.000000000E+00 0.000000000E+00 0.105999994E+01 0.000000000E+00 0.000000000E+00 0.108000004E+01 0.000000000E+00 0.000000000E+00 0.110000002E+01 0.000000000E+00 0.000000000E+00 0.112000000E+01 0.000000000E+00 0.000000000E+00 0.113999999E+01 0.000000000E+00 0.000000000E+00 0.115999997E+01 0.000000000E+00 0.000000000E+00 0.117999995E+01 0.000000000E+00 0.000000000E+00 0.120000005E+01 0.000000000E+00 0.000000000E+00 0.122000003E+01 0.000000000E+00 0.000000000E+00 0.124000001E+01 0.000000000E+00 0.000000000E+00 0.125999999E+01 0.000000000E+00 0.000000000E+00 0.127999997E+01 0.000000000E+00 0.000000000E+00 0.129999995E+01 0.000000000E+00 0.000000000E+00 0.132000005E+01 0.000000000E+00 0.000000000E+00 0.134000003E+01 0.000000000E+00 0.000000000E+00 0.136000001E+01 0.000000000E+00 0.000000000E+00 0.138000000E+01 0.000000000E+00 0.000000000E+00 0.139999998E+01 0.000000000E+00 0.000000000E+00 0.141999996E+01 0.000000000E+00 0.000000000E+00 0.144000006E+01 0.000000000E+00 0.000000000E+00 0.146000004E+01 0.000000000E+00 0.000000000E+00 0.148000002E+01 0.000000000E+00 0.000000000E+00 0.150000000E+01 0.000000000E+00 0.000000000E+00 0.151999998E+01 0.000000000E+00 0.000000000E+00 0.153999996E+01 0.000000000E+00 0.000000000E+00 0.155999994E+01 0.000000000E+00 0.000000000E+00 0.158000004E+01 0.000000000E+00 0.000000000E+00 0.160000002E+01 0.000000000E+00 0.000000000E+00 0.162000000E+01 0.000000000E+00 0.000000000E+00 0.163999999E+01 0.000000000E+00 0.000000000E+00 0.165999997E+01 0.000000000E+00 0.000000000E+00 0.167999995E+01 0.000000000E+00 0.000000000E+00 0.170000005E+01 0.000000000E+00 0.000000000E+00 0.172000003E+01 0.000000000E+00 0.000000000E+00 0.174000001E+01 0.000000000E+00 0.000000000E+00 0.175999999E+01 0.000000000E+00 0.000000000E+00 0.177999997E+01 0.000000000E+00 0.000000000E+00 0.179999995E+01 0.000000000E+00 0.000000000E+00 0.182000005E+01 0.000000000E+00 0.000000000E+00 0.184000003E+01 0.000000000E+00 0.000000000E+00 0.186000001E+01 0.000000000E+00 0.000000000E+00 0.188000000E+01 0.000000000E+00 0.000000000E+00 0.189999998E+01 0.000000000E+00 0.000000000E+00 0.191999996E+01 0.000000000E+00 0.000000000E+00 0.194000006E+01 0.000000000E+00 0.000000000E+00 0.196000004E+01 0.000000000E+00 0.000000000E+00 0.198000002E+01 0.000000000E+00 0.000000000E+00 0.200000000E+01 0.000000000E+00 0.000000000E+00
0.000000000E+00 0.999999978E-02 0.000000000E+00 0.199999996E-01 0.999999978E-02 0.000000000E+00 0.399999991E-01 0.999999978E-02 0.000000000E+00 0.599999987E-01 0.999999978E-02 0.000000000E+00 0.799999982E-01 0.999999978E-02 0.000000000E+00 0.100000001E+00 0.999999978E-02 0.000000000E+00 0.119999997E+00 0.999999978E-02 0.000000000E+00 0.140000001E+00 0.999999978E-02 0.000000000E+00 0.159999996E+00 0.999999978E-02 0.000000000E+00 0.180000007E+00 0.999999978E-02 0.000000000E+00 0.200000003E+00 0.999999978E-02 0.000000000E+00 0.219999999E+00 0.999999978E-02 0.000000000E+00 0.239999995E+00 0.999999978E-02 0.000000000E+00 0.259999990E+00 0.999999978E-02 0.000000000E+00 0.280000001E+00 0.999999978E-02 0.000000000E+00 0.300000012E+00 0.999999978E-02 0.000000000E+00 0.319999993E+00 0.999999978E-02 0.000000000E+00 0.340000004E+00 0.999999978E-02 0.000000000E+00 0.360000014E+00 0.999999978E-02 0.000000000E+00 0.379999995E+00 0.999999978E-02 0.000000000E+00 0.400000006E+00 0.999999978E-02 0.000000000E+00 0.419999987E+00 0.999999978E-02 0.000000000E+00 0.439999998E+00 0.999999978E-02 0.000000000E+00 0.460000008E+00 0.999999978E-02 0.000000000E+00 0.479999989E+00 0.999999978E-02 0.000000000E+00 0.500000000E+00 0.999999978E-02 0.000000000E+00 0.519999981E+00 0.999999978E-02 0.000000000E+00 0.540000021E+00 0.999999978E-02 0.000000000E+00 0.560000002E+00 0.999999978E-02 0.000000000E+00 0.579999983E+00 0.999999978E-02 0.000000000E+00 0.600000024E+00 0.999999978E-02 0.000000000E+00 0.620000005E+00 0.999999978E-02 0.000000000E+00 0.639999986E+00 0.999999978E-02 0.000000000E+00 0.660000026E+00 0.999999978E-02 0.000000000E+00 0.680000007E+00 0.999999978E-02 0.000000000E+00 0.699999988E+00 0.999999978E-02 0.000000000E+00 0.720000029E+00 0.999999978E-02 0.000000000E+00 0.740000010E+00 0.999999978E-02 0.000000000E+00 0.759999990E+00 0.999999978E-02 0.000000000E+00 0.779999971E+00 0.999999978E-02 0.000000000E+00 0.800000012E+00 0.999999978E-02 0.000000000E+00 0.819999993E+00 0.999999978E-02 0.000000000E+00 0.839999974E+00 0.999999978E-02 0.000000000E+00 0.860000014E+00 0.999999978E-02 0.000000000E+00 0.879999995E+00 0.999999978E-02 0.000000000E+00 0.899999976E+00 0.999999978E-02 0.000000000E+00 0.920000017E+00 0.999999978E-02 0.000000000E+00 0.939999998E+00 0.999999978E-02 0.000000000E+00 0.959999979E+00 0.999999978E-02 0.000000000E+00 0.980000019E+00 0.999999978E-02 0.000000000E+00 0.100000000E+01 0.999999978E-02 0.000000000E+00 0.101999998E+01 0.999999978E-02 0.000000000E+00 0.103999996E+01 0.999999978E-02 0.000000000E+00 0.105999994E+01 0.999999978E-02 0.000000000E+00 0.108000004E+01 0.999999978E-02 0.000000000E+00 0.110000002E+01 0.999999978E-02 0.000000000E+00 0.112000000E+01 0.999999978E-02 0.000000000E+00 0.113999999E+01 0.999999978E-02 0.000000000E+00 0.115999997E+01 0.999999978E-02 0.000000000E+00 0.117999995E+01 0.999999978E-02 0.000000000E+00 0.120000005E+01 0.999999978E-02 0.000000000E+00 0.122000003E+01 0.999999978E-02 0.000000000E+00 0.124000001E+01 0.999999978E-02 0.000000000E+00 0.125999999E+01 0.999999978E-02 0.000000000E+00 0.127999997E+01 0.999999978E-02 0.000000000E+00 0.129999995E+01 0.999999978E-02 0.000000000E+00 0.132000005E+01 0.999999978E-02 0.000000000E+00 0.134000003E+01 0.999999978E-02 0.000000000E+00 0.136000001E+01 0.999999978E-02 0.000000000E+00 0.138000000E+01 0.999999978E-02 0.000000000E+00 0.139999998E+01 0.999999978E-02 0.000000000E+00 0.141999996E+01 0.999999978E-02 0.000000000E+00 0.144000006E+01 0.999999978E-02 0.000000000E+00 0.146000004E+01 0.999999978E-02 0.000000000E+00 0.148000002E+01 0.999999978E-02 0.000000000E+00 0.150000000E+01 0.999999978E-02 0.000000000E+00 0.151999998E+01 0.999999978E-02 0.000000000E+00 0.153999996E+01 0.999999978E-02 0.000000000E+00 0.155999994E+01 0.999999978E-02 0.000000000E+00 0.158000004E+01 0.999999978E-02 0.000000000E+00 0.160000002E+01 0.999999978E-02 0.000000000E+00 0.162000000E+01 0.999999978E-02 0.000000000E+00 0.163999999E+01 0.999999978E-02 0.000000000E+00 0.165999997E+01 0.999999978E-02 0.000000000E+00 0.167999995E+01 0.999999978E-02 0.000000000E+00 0.170000005E+01 0.999999978E-02 0.000000000E+00 0.172000003E+01 0.999999978E-02 0.000000000E+00 0.174000001E+01 0.999999978E-02 0.000000000E+00 0.175999999E+01 0.999999978E-02 0.000000000E+00 0.177999997E+01 0.999999978E-02 0.000000000E+00 0.179999995E+01 0.999999978E-02 0.000000000E+00 0.182000005E+01 0.999999978E-02 0.000000000E+00 0.184000003E+01 0.999999978E-02 0.000000000E+00 0.186000001E+01 0.999999978E-02 0.000000000E+00 0.188000000E+01 0.999999978E-02 0.000000000E+00 0.189999998E+01 0.999999978E-02 0.000000000E+00 0.191999996E+01 0.999999978E-02 0.000000000E+00 0.194000006E+01 0.999999978E-02 0.000000000E+00 0.196000004E+01 0.999999978E-02 0.000000000E+00 0.198000002E+01 0.999999978E-02 0.000000000E+00 0.200000000E+01 0.999999978E-02 0.000000000E+00
[...]
<CellData Scalars="Temperature, U, V">
<DataArray type="Float32" Name="Temp, K"/>
0.122717007E-13 0.123068480E-12 0.704803132E-12 0.270945115E-11 0.772396730E-11 0.174569647E-10 0.327486024E-10 0.526554633E-10 0.742382059E-10 0.933022548E-10 0.105790536E-09 0.109170888E-09 0.103195785E-09 0.897699415E-10 0.721012069E-10 0.535878147E-10 0.369069081E-10 0.235712370E-10 0.139626592E-10 0.766915611E-11 0.390336461E-11 0.183916662E-11 0.801214943E-12 0.322231689E-12 0.119432608E-12 0.431238907E-13 0.151279881E-13 0.514118040E-14 0.168741626E-14 0.533106443E-15 0.161536767E-15 0.467613836E-16 0.128763144E-16 0.335677854E-17 0.824128058E-18 0.189432748E-18 0.404976803E-19 0.799197674E-20 0.144336504E-20 0.236172283E-21 0.345976186E-22 0.447293047E-23 0.501656766E-24 0.101678935E-23 0.390333270E-18 0.216869750E-15 0.548605486E-13 0.750475723E-11 0.541395151E-09 0.767395703E-09 0.143938672E-10 0.139620778E-12 0.772835190E-15 0.238828343E-17 0.332386838E-20 0.906777245E-25 0.752872775E-24 0.597734462E-23 0.418758860E-22 0.262624619E-21 0.149210942E-20 0.775779739E-20 0.372315674E-19 0.166186479E-18 0.694506839E-18 0.273348947E-17 0.101862784E-16 0.361113273E-16 0.122316097E-15 0.397424841E-15 0.124318962E-14 0.375655173E-14 0.109993225E-13 0.312991312E-13 0.867914478E-13 0.235138433E-12 0.588455879E-12 0.136231282E-11 0.292102779E-11 0.580627907E-11 0.107063299E-10 0.183184960E-10 0.290799659E-10 0.428042463E-10 0.583498666E-10 0.735186911E-10 0.853668039E-10 0.909724587E-10 0.884619669E-10 0.778738740E-10 0.613902401E-10 0.426953195E-10 0.256551256E-10 0.129310174E-10 0.523783837E-11 0.160003640E-11 0.334391315E-12 0.407229826E-13 0.206638092E-14 0.558967784E-20
0.201726331E-12 0.191512106E-11 0.105091266E-10 0.391504711E-10 0.109198435E-09 0.243378317E-09 0.453149546E-09 0.727034988E-09 0.102749709E-08 0.129958444E-08 0.148812285E-08 0.155576740E-08 0.149412838E-08 0.132398958E-08 0.108586573E-08 0.825953306E-09 0.583393167E-09 0.382867266E-09 0.233474712E-09 0.132242092E-09 0.695204450E-10 0.338849886E-10 0.152923924E-10 0.638017070E-11 0.245638405E-11 0.920025774E-12 0.334378169E-12 0.117604656E-12 0.399099665E-13 0.130263833E-13 0.407516064E-14 0.121729434E-14 0.345751146E-15 0.929491075E-16 0.235294156E-16 0.557654191E-17 0.122938705E-17 0.250248708E-18 0.466356254E-19 0.787794375E-20 0.119218284E-20 0.159339389E-21 0.188391786E-22 0.391438638E-21 0.974529604E-18 0.490587560E-15 0.120248578E-12 0.162347445E-10 0.116587939E-08 0.164993019E-08 0.309158012E-10 0.301447588E-12 0.169163120E-14 0.540321035E-17 0.838240680E-20 0.600560517E-23 0.276966192E-22 0.212658346E-21 0.144214608E-20 0.876132499E-20 0.482492222E-19 0.243274361E-18 0.113265159E-17 0.490582334E-17 0.198962994E-16 0.759949887E-16 0.274783364E-15 0.944939368E-15 0.310348721E-14 0.977213187E-14 0.296034458E-13 0.865579716E-13 0.245006028E-12 0.673213384E-12 0.180035229E-11 0.469727295E-11 0.113351004E-10 0.253365558E-10 0.525245611E-10 0.101090178E-09 0.180759283E-09 0.300403813E-09 0.464001726E-09 0.665780708E-09 0.886488327E-09 0.109335263E-08 0.124566857E-08 0.130584377E-08 0.125266941E-08 0.109129439E-08 0.854416926E-09 0.592591087E-09 0.356821794E-09 0.181275384E-09 0.745407833E-10 0.233214090E-10 0.504558548E-11 0.643811989E-12 0.346483198E-13 0.952646528E-19
0.221257236E-11 0.199661555E-10 0.105353441E-09 0.381380066E-09 0.104274234E-08 0.229445529E-08 0.424240820E-08 0.679230183E-08 0.961931512E-08 0.122364261E-07 0.141380383E-07 0.149580739E-07 0.145771493E-07 0.131403395E-07 0.109885860E-07 0.854089688E-08 0.617688301E-08 0.415851709E-08 0.260605804E-08 0.151947621E-08 0.823570712E-09 0.414482920E-09 0.193418948E-09 0.835534489E-10 0.333500068E-10 0.129313634E-10 0.485927791E-11 0.176505089E-11 0.617995184E-12 0.207936817E-12 0.670113785E-13 0.206084996E-13 0.602379424E-14 0.166599205E-14 0.433792598E-15 0.105744427E-15 0.239793059E-16 0.502185693E-17 0.963160110E-18 0.167524831E-18 0.261183167E-19 0.359884878E-20 0.431815391E-21 0.127865310E-20 0.178381623E-17 0.829861789E-15 0.197691689E-12 0.263557474E-10 0.188378957E-08 0.266152855E-08 0.498440109E-10 0.488597552E-12 0.277804445E-14 0.914123416E-17 0.154570297E-19 0.842426012E-22 0.644404747E-21 0.479906604E-20 0.315896528E-19 0.186407917E-18 0.997674738E-18 0.489092209E-17 0.221474548E-16 0.933156544E-16 0.368177111E-15 0.136798733E-14 0.481076979E-14 0.160846796E-13 0.513384772E-13 0.157003289E-12 0.461605255E-12 0.130878045E-11 0.358862419E-11 0.954095049E-11 0.246554860E-10 0.620695162E-10 0.144700127E-09 0.312866039E-09 0.628236463E-09 0.117282306E-08 0.203720618E-08 0.329411476E-08 0.495889108E-08 0.694722280E-08 0.904915787E-08 0.109409326E-07 0.122470674E-07 0.126449446E-07 0.119789592E-07 0.103362883E-07 0.804212341E-08 0.556385027E-08 0.335665318E-08 0.171759695E-08 0.716003978E-09 0.228932984E-09 0.511174575E-10 0.680821068E-11 0.386966555E-12 0.107776412E-17
0.177652806E-10 0.152758736E-09 0.776754272E-09 0.273677214E-08 0.734285877E-08 0.159612323E-07 0.293136253E-07 0.468311683E-07 0.664412241E-07 0.849640358E-07 0.989954927E-07 0.105922254E-06 0.104667535E-06 0.959035802E-07 0.817050392E-07 0.648358736E-07 0.479682569E-07 0.330986261E-07 0.212964313E-07 0.127698696E-07 0.712918080E-08 0.370109277E-08 0.178406578E-08 0.797146904E-09 0.329518107E-09 0.132129377E-09 0.512774163E-10 0.192132889E-10 0.693220004E-11 0.240142823E-11 0.796173457E-12 0.251739872E-12 0.756143127E-13 0.214818889E-13 0.574433774E-14 0.143787570E-14 0.334817910E-15 0.720113927E-16 0.141876546E-16 0.253589215E-17 0.406492916E-18 0.576230623E-19 0.710148854E-20 0.336743470E-20 0.285639920E-17 0.124501762E-14 0.288958039E-12 0.380557703E-10 0.270661693E-08 0.381765286E-08 0.714928464E-10 0.704655247E-12 0.405747628E-14 0.137183165E-16 0.249975661E-19 0.129344481E-20 0.106109760E-19 0.768087864E-19 0.491776607E-18 0.282436167E-17 0.147193713E-16 0.702899836E-16 0.310122294E-15 0.127326967E-14 0.489524904E-14 0.177211879E-13 0.607020470E-13 0.197610198E-12 0.613792871E-12 0.182552042E-11 0.521563565E-11 0.143569627E-10 0.381788628E-10 0.983249246E-10 0.245796161E-09 0.597687122E-09 0.134747302E-08 0.282104606E-08 0.549221557E-08 0.995481297E-08 0.168132281E-07 0.264758544E-07 0.388790511E-07 0.532275770E-07 0.678824748E-07 0.805227600E-07 0.886278997E-07 0.901917758E-07 0.844325143E-07 0.721997324E-07 0.558471562E-07 0.385501693E-07 0.233015740E-07 0.120054038E-07 0.506957321E-08 0.165434866E-08 0.380516674E-09 0.527751662E-10 0.315980553E-11 0.888855282E-17
0.111742116E-09 0.917801501E-09 0.450669102E-08 0.154783262E-07 0.407929051E-07 0.876414958E-07 0.159900267E-06 0.254870343E-06 0.362116310E-06 0.465278816E-06 0.546345632E-06 0.590763307E-06 0.591461742E-06 0.550399704E-06 0.477304866E-06 0.386350393E-06 0.292144989E-06 0.206414654E-06 0.136232899E-06 0.839302672E-07 0.482168296E-07 0.257956518E-07 0.128315918E-07 0.592413629E-08 0.253349164E-08 0.104940667E-08 0.420135204E-09 0.162202765E-09 0.602359065E-10 0.214572232E-10 0.730935017E-11 0.237297573E-11 0.731430107E-12 0.213147561E-12 0.584456664E-13 0.149988054E-13 0.358046163E-14 0.789499346E-15 0.159499547E-15 0.292420854E-16 0.480996965E-17 0.700054895E-18 0.886100041E-19 0.142054425E-19 0.423943009E-17 0.174829633E-14 0.396097055E-12 0.515484044E-10 0.364716324E-08 0.513550669E-08 0.962183042E-10 0.953751076E-12 0.555974893E-14 0.192738244E-16 0.387712413E-19 0.163640074E-19 0.132356188E-18 0.933168195E-18 0.582314513E-17 0.326122045E-16 0.165804622E-15 0.772633014E-15 0.332703467E-14 0.133323909E-13 0.500254948E-13 0.176705723E-12 0.590420020E-12 0.187400876E-11 0.567203532E-11 0.164268269E-10 0.456628832E-10 0.122177074E-09 0.315460075E-09 0.787846843E-09 0.190725724E-08 0.448432358E-08 0.978683090E-08 0.198593675E-07 0.375230940E-07 0.660959714E-07 0.108646510E-06 0.166767009E-06 0.239105418E-06 0.320177833E-06 0.400141971E-06 0.466075932E-06 0.504817365E-06 0.506725371E-06 0.469090764E-06 0.397761539E-06 0.306020979E-06 0.210825775E-06 0.127683180E-06 0.662195561E-07 0.283063244E-07 0.941619938E-08 0.222703522E-08 0.320898697E-09 0.201859293E-10 0.571796672E-16
0.575391235E-09 0.452514115E-08 0.215002984E-07 0.720847737E-07 0.186776873E-06 0.396790227E-06 0.719237164E-06 0.114357465E-05 0.162647666E-05 0.209865834E-05 0.248187985E-05 0.271003637E-05 0.274678041E-05 0.259377657E-05 0.228754243E-05 0.188703314E-05 0.145705087E-05 0.105316701E-05 0.712316364E-06 0.450455019E-06 0.266034391E-06 0.146526560E-06 0.751395888E-07 0.358085650E-07 0.158263624E-07 0.676471634E-08 0.279089907E-08 0.110898657E-08 0.423405977E-09 0.154911639E-09 0.541536919E-10 0.180287035E-10 0.569510194E-11 0.170002109E-11 0.477321633E-12 0.125398376E-12 0.306403564E-13 0.691545227E-14 0.143017278E-14 0.268469607E-15 0.452309605E-16 0.674577577E-17 0.875427059E-18 0.104188419E-18 0.599591049E-17 0.235421309E-14 0.521487150E-12 0.670766567E-10 0.471970552E-08 0.663424915E-08 0.124424041E-09 0.124064994E-11 0.731990542E-14 0.259760289E-16 0.703510842E-19 0.165452330E-18 0.130745026E-17 0.899637416E-17 0.548197837E-16 0.299934711E-15 0.149023102E-14 0.678785565E-14 0.285732470E-13 0.111928885E-12 0.410482602E-12 0.141680038E-11 0.462389155E-11 0.143280917E-10 0.423111615E-10 0.119466159E-09 0.323483129E-09 0.842251380E-09 0.211382933E-08 0.512497733E-08 0.120274679E-07 0.273717831E-07 0.578879984E-07 0.113966358E-06 0.209184137E-06 0.358436125E-06 0.573964201E-06 0.859564921E-06 0.120439859E-05 0.157886973E-05 0.193534197E-05 0.221543655E-05 0.236334336E-05 0.234181357E-05 0.214533748E-05 0.180501490E-05 0.138196663E-05 0.950538322E-06 0.576877255E-06 0.301103711E-06 0.130214303E-06 0.441068444E-07 0.107083586E-07 0.159943281E-08 0.105427077E-09 0.299820229E-15
0.250286036E-08 0.188908587E-07 0.870156285E-07 0.285170785E-06 0.727020222E-06 0.152774271E-05 0.275130310E-05 0.436260143E-05 0.620854735E-05 0.803997864E-05 0.956914391E-05 0.105432728E-04 0.108092290E-04 0.103485172E-04 0.927341534E-05 0.778885624E-05 0.613536895E-05 0.453245775E-05 0.313856094E-05 0.203532841E-05 0.123454322E-05 0.699341399E-06 0.369340597E-06 0.181500297E-06 0.828171736E-07 0.364905759E-07 0.154977098E-07 0.633137498E-08 0.248248755E-08 0.931827726E-09 0.333899547E-09 0.113855571E-09 0.368137291E-10 0.112421010E-10 0.322779217E-11 0.866869022E-12 0.216490183E-12 0.499359702E-13 0.105546836E-13 0.202526107E-14 0.348871669E-15 0.532194870E-16 0.706771074E-17 0.810600966E-18 0.824530326E-17 0.307999327E-14 0.667891252E-12 0.849174550E-10 0.594019278E-08 0.833525515E-08 0.156568661E-09 0.157085889E-11 0.937917380E-14 0.340349683E-16 0.222695193E-18 0.136695050E-17 0.105588025E-16 0.710407459E-16 0.423484392E-15 0.226749746E-14 0.110281750E-13 0.491782010E-13 0.202674886E-12 0.777218893E-12 0.278976386E-11 0.942136733E-11 0.300716049E-10 0.910839876E-10 0.262738581E-09 0.724083349E-09 0.191195393E-08 0.484957852E-08 0.118431922E-07 0.279042993E-07 0.635505302E-07 0.140132400E-06 0.287476979E-06 0.549649656E-06 0.981022936E-06 0.163675941E-05 0.255564851E-05 0.373767512E-05 0.512281804E-05 0.658050067E-05 0.791869661E-05 0.891665331E-05 0.937639106E-05 0.917925900E-05 0.832806563E-05 0.695739072E-05 0.530394163E-05 0.364374023E-05 0.221639266E-05 0.116416084E-05 0.509077495E-06 0.175408601E-06 0.436455032E-07 0.674269751E-08 0.464500188E-09 0.132223071E-14
0.941800682E-08 0.683740708E-07 0.305882253E-06 0.981067956E-06 0.246265631E-05 0.512025372E-05 0.916079171E-05 0.144818086E-04 0.206117293E-04 0.267716296E-04 0.320443323E-04 0.355965240E-04 0.368825204E-04 0.357673307E-04 0.325365254E-04 0.277984709E-04 0.223176539E-04 0.168344486E-04 0.119234492E-04 0.792161882E-05 0.493004563E-05 0.286954696E-05 0.155921362E-05 0.789313901E-06 0.371444685E-06 0.168539714E-06 0.736099821E-07 0.308863797E-07 0.124239365E-07 0.477930007E-08 0.175349257E-08 0.611720563E-09 0.202217632E-09 0.630978395E-10 0.185022865E-10 0.507305005E-11 0.129312338E-11 0.304396455E-12 0.656570610E-13 0.128576442E-13 0.226085397E-14 0.352155165E-15 0.477723505E-16 0.553792540E-17 0.114004902E-16 0.394611474E-14 0.838524671E-12 0.105386741E-09 0.732645811E-08 0.102623989E-07 0.193173769E-09 0.195075054E-11 0.117861162E-13 0.437542843E-16 0.116054495E-17 0.944394752E-17 0.714236247E-16 0.470719820E-15 0.274975609E-14 0.144321522E-13 0.688165548E-13 0.300882230E-12 0.121573791E-11 0.457017930E-11 0.160765689E-10 0.531880859E-10 0.166234956E-09 0.492737851E-09 0.138995415E-08 0.374294506E-08 0.964820934E-08 0.238650912E-07 0.567689860E-07 0.130117854E-06 0.287867863E-06 0.615670615E-06 0.122638835E-05 0.227946543E-05 0.395993538E-05 0.643920521E-05 0.981304129E-05 0.140287793E-04 0.188256636E-04 0.237180775E-04 0.280452896E-04 0.310922114E-04 0.322581509E-04 0.312270276E-04 0.280808363E-04 0.233101619E-04 0.177051988E-04 0.121542171E-04 0.741176564E-05 0.391749472E-05 0.173153296E-05 0.606356934E-06 0.154398450E-06 0.246193235E-07 0.176794956E-08 0.502244120E-14
0.312392423E-07 0.218613209E-06 0.951460549E-06 0.298987766E-05 0.739403094E-05 0.152137782E-04 0.270383644E-04 0.425988474E-04 0.606042777E-04 0.788981852E-04 0.949000678E-04 0.106196669E-03 0.111104164E-03 0.109038010E-03 0.100595033E-03 0.873431709E-04 0.714006601E-04 0.549407305E-04 0.397637850E-04 0.270390356E-04 0.172494128E-04 0.103060838E-04 0.575589229E-05 0.299858175E-05 0.145384627E-05 0.678639196E-06 0.304501356E-06 0.131095348E-06 0.540439160E-07 0.212846345E-07 0.798754929E-08 0.284780421E-08 0.961410174E-09 0.306173725E-09 0.915838516E-10 0.256049609E-10 0.665309474E-11 0.159611636E-11 0.350837577E-12 0.700148218E-13 0.125474455E-13 0.199236062E-14 0.275616130E-15 0.325224719E-16 0.173663774E-16 0.497703515E-14 0.103713262E-11 0.128845573E-09 0.889846685E-08 0.124423689E-07 0.234833486E-09 0.238770960E-11 0.145980386E-13 0.557745652E-16 0.652141337E-17 0.556200214E-16 0.412567567E-15 0.266791979E-14 0.152968018E-13 0.788181640E-13 0.368997611E-12 0.158402794E-11 0.628342690E-11 0.231840484E-10 0.800225719E-10 0.259665817E-09 0.795566890E-09 0.231021002E-08 0.637966924E-08 0.168038152E-07 0.423277591E-07 0.102203344E-06 0.237042840E-06 0.529061310E-06 0.113816225E-05 0.236339542E-05 0.457575470E-05 0.827588065E-05 0.140071488E-04 0.222201161E-04 0.330814510E-04 0.462729367E-04 0.608542214E-04 0.752677806E-04 0.875354381E-04 0.956366712E-04 0.979861070E-04 0.938771700E-04 0.837426342E-04 0.691269524E-04 0.523471754E-04 0.359269616E-04 0.219708618E-04 0.116861947E-04 0.521926086E-05 0.185607064E-05 0.482992220E-06 0.793313504E-07 0.592352922E-08 0.167450401E-13
0.927552364E-07 0.626950509E-06 0.265877247E-05 0.819396337E-05 0.199739770E-04 0.406761792E-04 0.717972143E-04 0.112687660E-03 0.160156444E-03 0.208835612E-03 0.252219848E-03 0.284076261E-03 0.299822772E-03 0.297499093E-03 0.278088846E-03 0.245143950E-03 0.203855554E-03 0.159860094E-03 0.118115837E-03 0.821273279E-04 0.536538173E-04 0.328744027E-04 0.188529757E-04 0.100974603E-04 0.503888805E-05 0.241736097E-05 0.111323925E-05 0.491290280E-06 0.207371215E-06 0.835337062E-07 0.320324318E-07 0.116599770E-07 0.401588274E-08 0.130389211E-08 0.397423622E-09 0.113167781E-09 0.299386384E-10 0.731091403E-11 0.163547734E-11 0.332151407E-12 0.605800471E-13 0.979117740E-14 0.137902861E-14 0.165647709E-15 0.347295420E-16 0.620238563E-14 0.126808557E-11 0.155707017E-09 0.106786038E-07 0.149050514E-07 0.282225743E-09 0.289031256E-11 0.178827629E-13 0.721258216E-16 0.333887021E-16 0.283743332E-15 0.206765443E-14 0.131399306E-13 0.740566124E-13 0.375140240E-12 0.172668032E-11 0.728694795E-11 0.284121147E-10 0.103016505E-09 0.349288154E-09 0.111285914E-08 0.334590133E-08 0.952823331E-08 0.257841997E-07 0.664942235E-07 0.163833690E-06 0.386528001E-06 0.874924467E-06 0.190335913E-05 0.398551856E-05 0.804321371E-05 0.151505992E-04 0.266899569E-04 0.440533331E-04 0.682401151E-04 0.993471258E-04 0.136092698E-03 0.175567344E-03 0.213385356E-03 0.244313764E-03 0.263299444E-03 0.266654795E-03 0.253072794E-03 0.224138537E-03 0.184132659E-03 0.139114316E-03 0.955090800E-04 0.585955677E-04 0.313674827E-04 0.141523569E-04 0.510746304E-05 0.135656035E-05 0.229085771E-06 0.177423018E-07 0.497680239E-13
0.249724707E-06 0.163340803E-05 0.675933734E-05 0.204480621E-04 0.491525498E-04 0.990745903E-04 0.173640772E-03 0.271378696E-03 0.385069870E-03 0.502546376E-03 0.608930015E-03 0.689681561E-03 0.733643479E-03 0.735301466E-03 0.695734809E-03 0.622080464E-03 0.525723386E-03 0.419743068E-03 0.316309539E-03 0.224675285E-03 0.150170745E-03 0.942683109E-04 0.554590297E-04 0.305076810E-04 0.156537899E-04 0.771074065E-05 0.364111088E-05 0.164564142E-05 0.710556321E-06 0.292486959E-06 0.114501759E-06 0.425128910E-07 0.149234332E-07 0.493513097E-08 0.153117663E-08 0.443603515E-09 0.119352514E-09 0.296323660E-10 0.673819290E-11 0.139087938E-11 0.257827641E-12 0.423560485E-13 0.606472160E-14 0.740699766E-15 0.981441657E-16 0.765950549E-14 0.153649088E-11 0.186444526E-09 0.126919968E-07 0.176839521E-07 0.336124989E-09 0.346852993E-11 0.217209673E-13 0.100218768E-15 0.151515890E-15 0.127087659E-14 0.911191627E-14 0.569894541E-13 0.316161078E-12 0.157656798E-11 0.714323782E-11 0.296715985E-10 0.113846030E-09 0.406074951E-09 0.135392086E-08 0.423978541E-08 0.125214479E-07 0.350020954E-07 0.929044859E-07 0.234794570E-06 0.566377253E-06 0.130682463E-05 0.288956790E-05 0.613278780E-05 0.125112992E-04 0.245634510E-04 0.450593325E-04 0.773899228E-04 0.124687038E-03 0.188779639E-03 0.269002398E-03 0.361228886E-03 0.457561109E-03 0.547001138E-03 0.617160520E-03 0.656719843E-03 0.658042496E-03 0.619236147E-03 0.545004965E-03 0.445953454E-03 0.336392783E-03 0.231168451E-03 0.142339981E-03 0.767024030E-04 0.349548027E-04 0.127944631E-04 0.346460934E-05 0.600488022E-06 0.481248073E-07 0.133587545E-12
0.616353020E-06 0.390806144E-05 0.158017665E-04 0.469598817E-04 0.111349422E-03 0.222145216E-03 0.386477244E-03 0.601159991E-03 0.851076969E-03 0.111083861E-02 0.134924648E-02 0.153534231E-02 0.164452067E-02 0.166326354E-02 0.159146870E-02 0.144193240E-02 0.123721838E-02 0.100476982E-02 0.771515362E-03 0.559296575E-03 0.382103783E-03 0.245513715E-03 0.148031540E-03 0.835560131E-04 0.440402946E-04 0.222530871E-04 0.107652968E-04 0.497845440E-05 0.219700382E-05 0.923324990E-06 0.368685818E-06 0.139501722E-06 0.498653314E-07 0.167800902E-07 0.529443422E-08 0.155904634E-08 0.426162466E-09 0.107457800E-09 0.248102025E-10 0.519897927E-11 0.978286137E-12 0.163141798E-12 0.237148032E-13 0.294089606E-14 0.331422181E-15 0.939990070E-14 0.184832748E-11 0.221601293E-09 0.149668828E-07 0.208166657E-07 0.397417432E-09 0.413397788E-11 0.262097235E-13 0.166077234E-15 0.611366676E-15 0.505595787E-14 0.357175464E-13 0.220151520E-12 0.120374446E-11 0.591617337E-11 0.264173787E-10 0.108125259E-09 0.408678508E-09 0.143547385E-08 0.471103601E-08 0.145134793E-07 0.421423287E-07 0.115741095E-06 0.301588074E-06 0.747591798E-06 0.176708534E-05 0.399099099E-05 0.862789602E-05 0.178811697E-04 0.355733573E-04 0.680106023E-04 0.121613550E-03 0.203831863E-03 0.320863415E-03 0.475259410E-03 0.663471292E-03 0.874184072E-03 0.108827616E-02 0.128089392E-02 0.142551074E-02 0.149918476E-02 0.148773042E-02 0.138946110E-02 0.121635920E-02 0.992198475E-03 0.747836137E-03 0.514728134E-03 0.318243954E-03 0.172668791E-03 0.794748703E-04 0.294899801E-04 0.813331280E-05 0.144445062E-05 0.119521701E-06 0.327475677E-12