<?xml version="1.0"?>
<VTKFile type="StructuredGrid">
<StructuredGrid WholeExtent="     0   100     0   100     0     0">
<Piece Extent="     0   100     0   100     0     0">
<Points>
<DataArray type="Float32" NumberOfComponents="3"/>
0.000000000E+00 0.000000000E+00 0.000000000E+00 0.199999996E-01 0.000000000E+00 0.000000000E+00 0.399999991E-01 0.000000000E+00 0.000000000E+00 0.599999987E-01 0.000000000E+00 0.000000000E+00 0.799999982E-01 0.000000000E+00 0.000000000E+00 0.100000001E+00 0.000000000E+00 0.000000000E+00 0.119999997E+00 0.000000000E+00 0.000000000E+00 0.140000001E+00 0.000000000E+00 0.000000000E+00 0.159999996E+00 0.000000000E+00 0.000000000E+00 0.180000007E+00 0.000000000E+00 0.000000000E+00 0.200000003E+00 0.000000000E+00 0.000000000E+00 0.219999999E+00 0.000000000E+00 0.000000000E+00 0.239999995E+00 0.000000000E+00 0.000000000E+00 0.259999990E+00 0.000000000E+00 0.000000000E+00 0.280000001E+00 0.000000000E+00 0.000000000E+00 0.300000012E+00 0.000000000E+00 0.000000000E+00 0.319999993E+00 0.000000000E+00 0.000000000E+00 0.340000004E+00 0.000000000E+00 0.000000000E+00 0.360000014E+00 0.000000000E+00 0.000000000E+00 0.379999995E+00 0.000000000E+00 0.000000000E+00 0.400000006E+00 0.000000000E+00 0.000000000E+00 0.419999987E+00 0.000000000E+00 0.000000000E+00 0.439999998E+00 0.000000000E+00 0.000000000E+00 0.460000008E+00 0.000000000E+00 0.000000000E+00 0.479999989E+00 0.000000000E+00 0.000000000E+00 0.500000000E+00 0.000000000E+00 0.000000000E+00 0.519999981E+00 0.000000000E+00 0.000000000E+00 0.540000021E+00 0.000000000E+00 0.000000000E+00 0.560000002E+00 0.000000000E+00 0.000000000E+00 0.579999983E+00 0.000000000E+00 0.000000000E+00 0.600000024E+00 0.000000000E+00 0.000000000E+00 0.620000005E+00 0.000000000E+00 0.000000000E+00 0.639999986E+00 0.000000000E+00 0.000000000E+00 0.660000026E+00 0.000000000E+00 0.000000000E+00 0.680000007E+00 0.000000000E+00 0.000000000E+00 0.699999988E+00 0.000000000E+00 0.000000000E+00 0.720000029E+00 0.000000000E+00 0.000000000E+00 0.740000010E+00 0.000000000E+00 0.000000000E+00 0.759999990E+00 0.000000000E+00 0.000000000E+00 0.779999971E+00 0.000000000E+00 0.000000000E+00 0.800000012E+00 0.000000000E+00 0.000000000E+00 0.819999993E+00 0.000000000E+00 0.000000000E+00 0.839999974E+00 0.000000000E+00 0.000000000E+00 0.860000014E+00 0.000000000E+00 0.000000000E+00 0.879999995E+00 0.000000000E+00 0.000000000E+00 0.899999976E+00 0.000000000E+00 0.000000000E+00 0.920000017E+00 0.000000000E+00 0.000000000E+00 0.939999998E+00 0.000000000E+00 0.000000000E+00 0.959999979E+00 0.000000000E+00 0.000000000E+00 0.980000019E+00 0.000000000E+00 0.000000000E+00 0.100000000E+01 0.000000000E+00 0.000000000E+00 0.101999998E+01 0.000000000E+00 0.000000000E+00 0.103999996E+01 0.000000000E+00 0.000000000E+00 0.105999994E+01 0.000000000E+00 0.000000000E+00 0.108000004E+01 0.000000000E+00 0.000000000E+00 0.110000002E+01 0.000000000E+00 0.000000000E+00 0.112000000E+01 0.000000000E+00 0.000000000E+00 0.113999999E+01 0.000000000E+00 0.000000000E+00 0.115999997E+01 0.000000000E+00 0.000000000E+00 0.117999995E+01 0.000000000E+00 0.000000000E+00 0.120000005E+01 0.000000000E+00 0.000000000E+00 0.122000003E+01 0.000000000E+00 0.000000000E+00 0.124000001E+01 0.000000000E+00 0.000000000E+00 0.125999999E+01 0.000000000E+00 0.000000000E+00 0.127999997E+01 0.000000000E+00 0.000000000E+00 0.129999995E+01 0.000000000E+00 0.000000000E+00 0.132000005E+01 0.000000000E+00 0.000000000E+00 0.134000003E+01 0.000000000E+00 0.000000000E+00 0.136000001E+01 0.000000000E+00 0.000000000E+00 0.138000000E+01 0.000000000E+00 0.000000000E+00 0.139999998E+01 0.000000000E+00 0.000000000E+00 0.141999996E+01 0.000000000E+00 0.000000000E+00 0.144000006E+01 0.000000000E+00 0.000000000E+00 0.146000004E+01 0.000000000E+00 0.000000000E+00 0.148000002E+01 0.000000000E+00 0.000000000E+00 0.150000000E+01 0.000000000E+00 0.000000000E+00 0.151999998E+01 0.000000000E+00 0.000000000E+00 0.153999996E+01 0.000000000E+00 0.000000000E+00 0.155999994E+01 0.000000000E+00 0.000000000E+00 0.158000004E+01 0.000000000E+00 0.000000000E+00 0.160000002E+01 0.000000000E+00 0.000000000E+00 0.162000000E+01 0.000000000E+00 0.000000000E+00 0.163999999E+01 0.000000000E+00 0.000000000E+00 0.165999997E+01 0.000000000E+00 0.000000000E+00 0.167999995E+01 0.000000000E+00 0.000000000E+00 0.170000005E+01 0.000000000E+00 0.000000000E+00 0.172000003E+01 0.000000000E+00 0.000000000E+00 0.174000001E+01 0.000000000E+00 0.000000000E+00 0.175999999E+01 0.000000000E+00 0.000000000E+00 0.177999997E+01 0.000000000E+00 0.000000000E+00 0.179999995E+01 0.000000000E+00 0.000000000E+00 0.182000005E+01 0.000000000E+00 0.000000000E+00 0.184000003E+01 0.000000000E+00 0.000000000E+00 0.186000001E+01 0.000000000E+00 0.000000000E+00 0.188000000E+01 0.000000000E+00 0.000000000E+00 0.189999998E+01 0.000000000E+00 0.000000000E+00 0.191999996E+01 0.000000000E+00 0.000000000E+00 0.194000006E+01 0.000000000E+00 0.000000000E+00 0.196000004E+01 0.000000000E+00 0.000000000E+00 0.198000002E+01 0.000000000E+00 0.000000000E+00 0.200000000E+01 0.000000000E+00 0.000000000E+00
0.000000000E+00 0.999999978E-02 0.000000000E+00 0.199999996E-01 0.999999978E-02 0.000000000E+00 0.399999991E-01 0.999999978E-02 0.000000000E+00 0.599999987E-01 0.999999978E-02 0.000000000E+00 0.799999982E-01 0.999999978E-02 0.000000000E+00 0.100000001E+00 0.999999978E-02 0.000000000E+00 0.119999997E+00 0.999999978E-02 0.000000000E+00 0.140000001E+00 0.999999978E-02 0.000000000E+00 0.159999996E+00 0.999999978E-02 0.000000000E+00 0.180000007E+00 0.999999978E-02 0.000000000E+00 0.200000003E+00 0.999999978E-02 0.000000000E+00 0.219999999E+00 0.999999978E-02 0.000000000E+00 0.239999995E+00 0.999999978E-02 0.000000000E+00 0.259999990E+00 0.999999978E-02 0.000000000E+00 0.280000001E+00 0.999999978E-02 0.000000000E+00 0.300000012E+00 0.999999978E-02 0.000000000E+00 0.319999993E+00 0.999999978E-02 0.000000000E+00 0.340000004E+00 0.999999978E-02 0.000000000E+00 0.360000014E+00 0.999999978E-02 0.000000000E+00 0.379999995E+00 0.999999978E-02 0.000000000E+00 0.400000006E+00 0.999999978E-02 0.000000000E+00 0.419999987E+00 0.999999978E-02 0.000000000E+00 0.439999998E+00 0.999999978E-02 0.000000000E+00 0.460000008E+00 0.999999978E-02 0.000000000E+00 0.479999989E+00 0.999999978E-02 0.000000000E+00 0.500000000E+00 0.999999978E-02 0.000000000E+00 0.519999981E+00 0.999999978E-02 0.000000000E+00 0.540000021E+00 0.999999978E-02 0.000000000E+00 0.560000002E+00 0.999999978E-02 0.000000000E+00 0.579999983E+00 0.999999978E-02 0.000000000E+00 0.600000024E+00 0.999999978E-02 0.000000000E+00 0.620000005E+00 0.999999978E-02 0.000000000E+00 0.639999986E+00 0.999999978E-02 0.000000000E+00 0.660000026E+00 0.999999978E-02 0.000000000E+00 0.680000007E+00 0.999999978E-02 0.000000000E+00 0.699999988E+00 0.999999978E-02 0.000000000E+00 0.720000029E+00 0.999999978E-02 0.000000000E+00 0.740000010E+00 0.999999978E-02 0.000000000E+00 0.759999990E+00 0.999999978E-02 0.000000000E+00 0.779999971E+00 0.999999978E-02 0.000000000E+00 0.800000012E+00 0.999999978E-02 0.000000000E+00 0.819999993E+00 0.999999978E-02 0.000000000E+00 0.839999974E+00 0.999999978E-02 0.000000000E+00 0.860000014E+00 0.999999978E-02 0.000000000E+00 0.879999995E+00 0.999999978E-02 0.000000000E+00 0.899999976E+00 0.999999978E-02 0.000000000E+00 0.920000017E+00 0.999999978E-02 0.000000000E+00 0.939999998E+00 0.999999978E-02 0.000000000E+00 0.959999979E+00 0.999999978E-02 0.000000000E+00 0.980000019E+00 0.999999978E-02 0.000000000E+00 0.100000000E+01 0.999999978E-02 0.000000000E+00 0.101999998E+01 0.999999978E-02 0.000000000E+00 0.103999996E+01 0.999999978E-02 0.000000000E+00 0.105999994E+01 0.999999978E-02 0.000000000E+00 0.108000004E+01 0.999999978E-02 0.000000000E+00 0.110000002E+01 0.999999978E-02 0.000000000E+00 0.112000000E+01 0.999999978E-02 0.000000000E+00 0.113999999E+01 0.999999978E-02 0.000000000E+00 0.115999997E+01 0.999999978E-02 0.000000000E+00 0.117999995E+01 0.999999978E-02 0.000000000E+00 0.120000005E+01 0.999999978E-02 0.000000000E+00 0.122000003E+01 0.999999978E-02 0.000000000E+00 0.124000001E+01 0.999999978E-02 0.000000000E+00 0.125999999E+01 0.999999978E-02 0.000000000E+00 0.127999997E+01 0.999999978E-02 0.000000000E+00 0.129999995E+01 0.999999978E-02 0.000000000E+00 0.132000005E+01 0.999999978E-02 0.000000000E+00 0.134000003E+01 0.999999978E-02 0.000000000E+00 0.136000001E+01 0.999999978E-02 0.000000000E+00 0.138000000E+01 0.999999978E-02 0.000000000E+00 0.139999998E+01 0.999999978E-02 0.000000000E+00 0.141999996E+01 0.999999978E-02 0.000000000E+00 0.144000006E+01 0.999999978E-02 0.000000000E+00 0.146000004E+01 0.999999978E-02 0.000000000E+00 0.148000002E+01 0.999999978E-02 0.000000000E+00 0.150000000E+01 0.999999978E-02 0.000000000E+00 0.151999998E+01 0.999999978E-02 0.000000000E+00 0.153999996E+01 0.999999978E-02 0.000000000E+00 0.155999994E+01 0.999999978E-02 0.000000000E+00 0.158000004E+01 0.999999978E-02 0.000000000E+00 0.160000002E+01 0.999999978E-02 0.000000000E+00 0.162000000E+01 0.999999978E-02 0.000000000E+00 0.163999999E+01 0.999999978E-02 0.000000000E+00 0.165999997E+01 0.999999978E-02 0.000000000E+00 0.167999995E+01 0.999999978E-02 0.000000000E+00 0.170000005E+01 0.999999978E-02 0.000000000E+00 0.172000003E+01 0.999999978E-02 0.000000000E+00 0.174000001E+01 0.999999978E-02 0.000000000E+00 0.175999999E+01 0.999999978E-02 0.000000000E+00 0.177999997E+01 0.999999978E-02 0.000000000E+00 0.179999995E+01 0.999999978E-02 0.000000000E+00 0.182000005E+01 0.999999978E-02 0.000000000E+00 0.184000003E+01 0.999999978E-02 0.000000000E+00 0.186000001E+01 0.999999978E-02 0.000000000E+00 0.188000000E+01 0.999999978E-02 0.000000000E+00 0.189999998E+01 0.999999978E-02 0.000000000E+00 0.191999996E+01 0.999999978E-02 0.000000000E+00 0.194000006E+01 0.999999978E-02 0.000000000E+00 0.196000004E+01 0.999999978E-02 0.000000000E+00 0.198000002E+01 0.999999978E-02 0.000000000E+00 0.200000000E+01 0.999999978E-02 0.000000000E+00
[...]
<CellData Scalars="Temperature, U, V">
<DataArray type="Float32" Name="Temp, K"/>
0.152355926E-05 0.443400586E-05 0.917542002E-05 0.159585943E-04 0.247123080E-04 0.350798000E-04 0.464568693E-04 0.580629348E-04 0.690330126E-04 0.785176308E-04 0.857780469E-04 0.902653846E-04 0.916755162E-04 0.899741572E-04 0.853903985E-04 0.783808282E-04 0.695694544E-04 0.596718310E-04 0.494135675E-04 0.394543604E-04 0.303271572E-04 0.224000851E-04 0.158644689E-04 0.107479100E-04 0.694708069E-05 0.441089560E-05 0.274631839E-05 0.167359008E-05 0.996102017E-06 0.577686592E-06 0.325588161E-06 0.177805319E-06 0.937703746E-07 0.475751456E-07 0.231208830E-07 0.107096980E-07 0.470112438E-08 0.194254568E-08 0.749670492E-09 0.267695449E-09 0.874567224E-10 0.257828672E-10 0.674115017E-11 0.152855463E-11 0.291665184E-12 0.448617787E-13 0.536590671E-14 0.101789230E-12 0.319703118E-10 0.452232314E-10 0.191796299E-12 0.191090506E-14 0.133543113E-13 0.892944572E-13 0.481318436E-12 0.218316272E-11 0.858739902E-11 0.299549656E-10 0.942800629E-10 0.271458633E-09 0.723110349E-09 0.179877702E-08 0.421148538E-08 0.934296462E-08 0.197525729E-07 0.399959248E-07 0.779020226E-07 0.146513713E-06 0.266971938E-06 0.472721666E-06 0.815551743E-06 0.137415338E-05 0.226612246E-05 0.366464610E-05 0.582154962E-05 0.909896607E-05 0.135839782E-04 0.194165241E-04 0.266290353E-04 0.351079652E-04 0.445697078E-04 0.545580115E-04 0.644668617E-04 0.735886788E-04 0.811832506E-04 0.865597467E-04 0.891605087E-04 0.886369089E-04 0.849047938E-04 0.781722338E-04 0.689322987E-04 0.579211010E-04 0.460415686E-04 0.342601852E-04 0.234888867E-04 0.144662945E-04 0.765576169E-05 0.317903800E-05 0.803172782E-06 0.702022685E-11
0.822202855E-05 0.234034924E-04 0.476639943E-04 0.819719717E-04 0.125971521E-03 0.178001123E-03 0.235279658E-03 0.294218538E-03 0.350812159E-03 0.401056983E-03 0.441354961E-03 0.468860439E-03 0.481741590E-03 0.479333074E-03 0.462169584E-03 0.431897875E-03 0.391079782E-03 0.342906715E-03 0.290858181E-03 0.238345805E-03 0.188385195E-03 0.143338970E-03 0.104762192E-03 0.733663182E-04 0.490974962E-04 0.322088708E-04 0.206797304E-04 0.129714481E-04 0.793297204E-05 0.471967087E-05 0.272470129E-05 0.152201517E-05 0.819989282E-06 0.424510631E-06 0.210296335E-06 0.992050602E-07 0.443157866E-07 0.186235187E-07 0.730624938E-08 0.265135203E-08 0.880161055E-09 0.263667727E-09 0.700659808E-10 0.161536184E-10 0.313570676E-11 0.491035218E-12 0.583605768E-13 0.211588342E-12 0.651714724E-10 0.921460200E-10 0.391968034E-12 0.179531208E-13 0.149042860E-12 0.978960077E-12 0.518790740E-11 0.231509777E-10 0.896385466E-10 0.307893849E-09 0.954385904E-09 0.270631451E-08 0.709864878E-08 0.173820620E-07 0.400406570E-07 0.873407870E-07 0.181419907E-06 0.360585830E-06 0.688681553E-06 0.126856958E-05 0.226101292E-05 0.391045069E-05 0.657940745E-05 0.107935175E-04 0.172993841E-04 0.271377794E-04 0.417348710E-04 0.630146242E-04 0.910129384E-04 0.126051949E-03 0.167782098E-03 0.215055450E-03 0.265895680E-03 0.317581085E-03 0.366841268E-03 0.410145760E-03 0.444053614E-03 0.465582329E-03 0.472548534E-03 0.463846838E-03 0.439625117E-03 0.401338679E-03 0.351662253E-03 0.294271100E-03 0.233492785E-03 0.173858862E-03 0.119601165E-03 0.741436525E-04 0.396554169E-04 0.167413946E-04 0.434958974E-05 0.370428896E-10
0.328336100E-04 0.916789941E-04 0.184135206E-03 0.313493249E-03 0.478335132E-03 0.672746392E-03 0.887029513E-03 0.110876921E-02 0.132410019E-02 0.151903322E-02 0.168072421E-02 0.179858098E-02 0.186513783E-02 0.187663781E-02 0.183328253E-02 0.173914176E-02 0.160171778E-02 0.143120112E-02 0.123948243E-02 0.103901012E-02 0.841617701E-03 0.657460478E-03 0.494199980E-03 0.356543576E-03 0.246197480E-03 0.166319296E-03 0.109757711E-03 0.706362334E-04 0.442481651E-04 0.269221182E-04 0.158715502E-04 0.904138415E-05 0.496136954E-05 0.261319542E-05 0.131573972E-05 0.630299326E-06 0.285708268E-06 0.121762568E-06 0.484208940E-07 0.178055526E-07 0.598868199E-08 0.181764270E-08 0.489457697E-09 0.114388443E-09 0.225203692E-10 0.357914241E-11 0.430135609E-12 0.351890202E-12 0.997071592E-10 0.140911130E-09 0.607907984E-12 0.130269696E-12 0.110511491E-11 0.715233732E-11 0.373776912E-10 0.164590480E-09 0.629141461E-09 0.213403673E-08 0.653324372E-08 0.182967153E-07 0.473890900E-07 0.114541706E-06 0.260322622E-06 0.559891703E-06 0.114582258E-05 0.224181258E-05 0.421042159E-05 0.761803994E-05 0.133201029E-04 0.225688636E-04 0.371450369E-04 0.595128658E-04 0.929962189E-04 0.141970493E-03 0.212062267E-03 0.310345524E-03 0.435098191E-03 0.585851085E-03 0.759348623E-03 0.949369976E-03 0.114693970E-02 0.134091894E-02 0.151891564E-02 0.166840479E-02 0.177792751E-02 0.183824159E-02 0.184329099E-02 0.179092749E-02 0.168328010E-02 0.152676064E-02 0.133165356E-02 0.111134141E-02 0.881162297E-03 0.656971475E-03 0.453528686E-03 0.282842142E-03 0.152656314E-03 0.653263487E-04 0.173539647E-04 0.143481171E-09
0.100960475E-03 0.276819017E-03 0.548648473E-03 0.924891268E-03 0.140094548E-02 0.196024100E-02 0.257642847E-02 0.321626803E-02 0.384284556E-02 0.441880804E-02 0.490939151E-02 0.528505445E-02 0.552361133E-02 0.561177032E-02 0.554600731E-02 0.533273350E-02 0.498772273E-02 0.453479541E-02 0.400382280E-02 0.342815812E-02 0.284169940E-02 0.227589346E-02 0.175701687E-02 0.130412320E-02 0.927959918E-03 0.644891756E-03 0.437080656E-03 0.288434647E-03 0.184990611E-03 0.115072449E-03 0.692622634E-04 0.402320038E-04 0.224843679E-04 0.120480663E-04 0.616522902E-05 0.299897738E-05 0.137929919E-05 0.596035932E-06 0.240205082E-06 0.894789096E-07 0.304787768E-07 0.936750766E-08 0.255442578E-08 0.604649553E-09 0.120612076E-09 0.194315883E-10 0.236672704E-11 0.626109353E-12 0.135691541E-09 0.191672220E-09 0.871502198E-12 0.723686844E-12 0.609704127E-11 0.389312298E-10 0.200850753E-09 0.873533357E-09 0.329891114E-08 0.110570104E-07 0.334486394E-07 0.925493069E-07 0.236757984E-06 0.564980326E-06 0.126702878E-05 0.268714757E-05 0.541845066E-05 0.104360524E-04 0.192754324E-04 0.342595340E-04 0.587734103E-04 0.975781441E-04 0.157147777E-03 0.246002804E-03 0.375004718E-03 0.557567109E-03 0.809733523E-03 0.115006953E-02 0.156718877E-02 0.205431366E-02 0.259649241E-02 0.317099318E-02 0.374872773E-02 0.429650769E-02 0.477985432E-02 0.516601559E-02 0.542687112E-02 0.554148620E-02 0.549805071E-02 0.529518025E-02 0.494238269E-02 0.445974385E-02 0.387672312E-02 0.323019200E-02 0.256165233E-02 0.191375345E-02 0.132632104E-02 0.832154416E-03 0.452984706E-03 0.196203458E-03 0.531207188E-04 0.424337510E-09
0.256124942E-03 0.690169632E-03 0.135055033E-02 0.225459714E-02 0.338948634E-02 0.471604103E-02 0.617441861E-02 0.769076124E-02 0.918403920E-02 0.105725676E-01 0.117798736E-01 0.127396733E-01 0.133999400E-01 0.137259476E-01 0.137022883E-01 0.133338077E-01 0.126453396E-01 0.116801653E-01 0.104971323E-01 0.916640554E-02 0.776402326E-02 0.636565313E-02 0.504008541E-02 0.384335569E-02 0.281432993E-02 0.200984068E-02 0.139780936E-02 0.945234846E-03 0.620380975E-03 0.394391158E-03 0.242299910E-03 0.143486031E-03 0.816600586E-04 0.445122751E-04 0.231484919E-04 0.114333516E-04 0.533509683E-05 0.233743935E-05 0.954512871E-06 0.360121646E-06 0.124195225E-06 0.386381096E-07 0.106643228E-07 0.255514943E-08 0.516015564E-09 0.841958794E-10 0.103888070E-10 0.141424329E-11 0.173258893E-09 0.244597759E-09 0.129989118E-11 0.322022183E-11 0.268230403E-10 0.169147626E-09 0.862226346E-09 0.370633280E-08 0.138365213E-07 0.458457130E-07 0.137087738E-06 0.374843808E-06 0.947289720E-06 0.223205711E-05 0.493964717E-05 0.103308557E-04 0.205262386E-04 0.389199995E-04 0.706995925E-04 0.123454709E-03 0.207837220E-03 0.338206388E-03 0.533169194E-03 0.815901090E-03 0.121412426E-02 0.175962108E-02 0.248718308E-02 0.343294628E-02 0.455316482E-02 0.581855699E-02 0.718174921E-02 0.858019106E-02 0.994094741E-02 0.111866379E-01 0.122417901E-01 0.130388970E-01 0.135237202E-01 0.136594903E-01 0.134297740E-01 0.128401397E-01 0.119183799E-01 0.107134655E-01 0.929300021E-02 0.773941772E-02 0.614463305E-02 0.460320571E-02 0.320430985E-02 0.202279887E-02 0.111008016E-02 0.486026693E-03 0.133706169E-03 0.102745601E-08
0.560537504E-03 0.148545776E-02 0.287112198E-02 0.474678585E-02 0.708092423E-02 0.979189482E-02 0.127608925E-01 0.158454366E-01 0.188921317E-01 0.217479784E-01 0.242699906E-01 0.263329409E-01 0.278355945E-01 0.287053958E-01 0.289019011E-01 0.284189079E-01 0.272852350E-01 0.255638789E-01 0.233492330E-01 0.207620338E-01 0.179417841E-01 0.150367981E-01 0.121923881E-01 0.953841768E-02 0.717788842E-02 0.526182353E-02 0.375199085E-02 0.259821303E-02 0.174420874E-02 0.113282492E-02 0.710210530E-03 0.428706524E-03 0.248436583E-03 0.137753756E-03 0.728037339E-04 0.365116866E-04 0.172855034E-04 0.767807160E-05 0.317684749E-05 0.121378116E-05 0.423733269E-06 0.133403915E-06 0.372538693E-07 0.903055053E-08 0.184523363E-08 0.304690717E-09 0.380572240E-10 0.387269166E-11 0.212585893E-09 0.299878816E-09 0.225402791E-11 0.119614058E-10 0.984807028E-10 0.613835205E-09 0.309376103E-08 0.131512792E-07 0.485546110E-07 0.159092338E-06 0.470338506E-06 0.127112457E-05 0.317368244E-05 0.738415565E-05 0.161263615E-04 0.332592062E-04 0.651138325E-04 0.121546902E-03 0.217161258E-03 0.372585142E-03 0.615638040E-03 0.982147292E-03 0.151614635E-02 0.226917048E-02 0.329842139E-02 0.466366531E-02 0.642289035E-02 0.862694252E-02 0.111521678E-01 0.139136808E-01 0.167955104E-01 0.196596533E-01 0.223573186E-01 0.247407220E-01 0.266741458E-01 0.280433204E-01 0.287627466E-01 0.287809391E-01 0.280834418E-01 0.266943146E-01 0.246756673E-01 0.221256986E-01 0.191746373E-01 0.159789678E-01 0.127129639E-01 0.955744181E-02 0.668575475E-02 0.424723979E-02 0.234903395E-02 0.103844656E-02 0.289474963E-03 0.213178275E-08
0.109192578E-02 0.284723728E-02 0.543738808E-02 0.890291668E-02 0.131742861E-01 0.180972274E-01 0.234591793E-01 0.290139765E-01 0.345032252E-01 0.396737382E-01 0.442910828E-01 0.481497049E-01 0.510805398E-01 0.529565625E-01 0.536971092E-01 0.532710664E-01 0.516992174E-01 0.490552746E-01 0.454649888E-01 0.411025397E-01 0.361831486E-01 0.309510957E-01 0.256631076E-01 0.205678847E-01 0.158840418E-01 0.119391363E-01 0.872094370E-02 0.618035858E-02 0.424163742E-02 0.281349849E-02 0.179958483E-02 0.110714498E-02 0.653261959E-03 0.368456414E-03 0.197901856E-03 0.100778430E-03 0.484071898E-04 0.217999441E-04 0.913885469E-05 0.353575001E-05 0.124931853E-05 0.397946934E-06 0.112405154E-06 0.275561156E-07 0.569410208E-08 0.950904577E-09 0.120143090E-09 0.110089004E-10 0.253940563E-09 0.357745333E-09 0.468690928E-11 0.382702620E-10 0.311606491E-09 0.192112215E-08 0.957893409E-08 0.402858085E-07 0.147144377E-06 0.476889795E-06 0.139416613E-05 0.372445584E-05 0.918760998E-05 0.211085844E-04 0.454917026E-04 0.925187851E-04 0.178470989E-03 0.327975024E-03 0.576345774E-03 0.971650239E-03 0.157599687E-02 0.246547046E-02 0.372816669E-02 0.545990514E-02 0.775748817E-02 0.107097477E-01 0.143870693E-01 0.188305471E-01 0.237594061E-01 0.289821718E-01 0.342662446E-01 0.393575169E-01 0.440006219E-01 0.479572676E-01 0.510212146E-01 0.530293398E-01 0.538690574E-01 0.534828641E-01 0.518702231E-01 0.490882806E-01 0.452507623E-01 0.405256487E-01 0.351304449E-01 0.293253828E-01 0.234024134E-01 0.176692456E-01 0.124278208E-01 0.794672780E-02 0.442847284E-02 0.197477988E-02 0.556431303E-03 0.391460730E-08
0.193738274E-02 0.497258874E-02 0.938486960E-02 0.152177159E-01 0.223316308E-01 0.304573141E-01 0.392446481E-01 0.483042113E-01 0.572399683E-01 0.656732917E-01 0.732596368E-01 0.796992630E-01 0.847441331E-01 0.882023722E-01 0.899415836E-01 0.898921788E-01 0.880507752E-01 0.844839066E-01 0.793309212E-01 0.728049278E-01 0.651895702E-01 0.568297133E-01 0.481137708E-01 0.394474603E-01 0.312201101E-01 0.240345336E-01 0.179686416E-01 0.130231911E-01 0.913322438E-02 0.618499005E-02 0.403523771E-02 0.252989796E-02 0.151979772E-02 0.871944707E-03 0.475963170E-03 0.246118405E-03 0.119947777E-03 0.547672098E-04 0.232618913E-04 0.911295410E-05 0.325871451E-05 0.105003164E-05 0.299927621E-06 0.743349915E-07 0.155268420E-07 0.262097299E-08 0.334752420E-09 0.296713799E-10 0.297772917E-09 0.418496432E-09 0.108024032E-10 0.108004314E-09 0.870240102E-09 0.531002575E-08 0.262057434E-07 0.109081178E-06 0.394270756E-06 0.126419150E-05 0.365512915E-05 0.965283107E-05 0.235272855E-04 0.533759558E-04 0.113512819E-03 0.227640601E-03 0.432663452E-03 0.782744959E-03 0.135293044E-02 0.224138773E-02 0.356918341E-02 0.547654601E-02 0.811489578E-02 0.116344905E-01 0.161683355E-01 0.218139160E-01 0.286150556E-01 0.365467407E-01 0.450721160E-01 0.538330153E-01 0.624333695E-01 0.704721063E-01 0.775720924E-01 0.834023952E-01 0.876934677E-01 0.902460068E-01 0.909351707E-01 0.897120610E-01 0.866034627E-01 0.817117617E-01 0.752141848E-01 0.673619807E-01 0.584773533E-01 0.489480719E-01 0.392161980E-01 0.297585074E-01 0.210568588E-01 0.135563118E-01 0.761082722E-02 0.342073990E-02 0.972177135E-03 0.651731691E-08
0.318615069E-02 0.805152301E-02 0.150202597E-01 0.241183974E-01 0.350885205E-01 0.474906191E-01 0.607858747E-01 0.744011700E-01 0.877750963E-01 0.100387715E+00 0.111777902E+00 0.121551409E+00 0.129383698E+00 0.135019988E+00 0.138274744E+00 0.139032885E+00 0.137252778E+00 0.132972047E+00 0.126315415E+00 0.117502674E+00 0.106854588E+00 0.947923064E-01 0.818264112E-01 0.685317963E-01 0.555068702E-01 0.437173359E-01 0.334228873E-01 0.247576814E-01 0.177333485E-01 0.122562181E-01 0.815435592E-02 0.520909997E-02 0.318575278E-02 0.185911916E-02 0.103136711E-02 0.541557558E-03 0.267797819E-03 0.123971535E-03 0.533492057E-04 0.211614461E-04 0.765749701E-05 0.249563732E-05 0.720699404E-06 0.180529469E-06 0.381025842E-07 0.649819354E-08 0.838491443E-09 0.737729669E-10 0.344864248E-09 0.482550389E-09 0.251461959E-10 0.273846695E-09 0.218486518E-08 0.132014488E-07 0.645126192E-07 0.265865452E-06 0.951195261E-06 0.301794284E-05 0.863071546E-05 0.225337244E-04 0.542676207E-04 0.121571706E-03 0.255123596E-03 0.504489581E-03 0.944729953E-03 0.168257684E-02 0.286060409E-02 0.465747202E-02 0.728240004E-02 0.109625151E-01 0.159228351E-01 0.223600697E-01 0.304130651E-01 0.401341207E-01 0.514660478E-01 0.642296448E-01 0.775344446E-01 0.908049569E-01 0.103455141E+00 0.114932731E+00 0.124751739E+00 0.132512033E+00 0.137908310E+00 0.140731439E+00 0.140865907E+00 0.138286620E+00 0.133056015E+00 0.125324577E+00 0.115332574E+00 0.103413910E+00 0.899984539E-01 0.756124109E-01 0.608707964E-01 0.464574955E-01 0.330886990E-01 0.214542337E-01 0.121340146E-01 0.549336523E-02 0.157180510E-02 0.100217008E-07
0.492307963E-02 0.122505520E-01 0.225922819E-01 0.359204449E-01 0.517933927E-01 0.695321411E-01 0.883536786E-01 0.107464418E+00 0.126119703E+00 0.143656448E+00 0.159506738E+00 0.173198611E+00 0.184350356E+00 0.192662030E+00 0.197907895E+00 0.199932173E+00 0.198649421E+00 0.194050550E+00 0.186214805E+00 0.175325975E+00 0.161690429E+00 0.145751908E+00 0.128096208E+00 0.109438568E+00 0.905867517E-01 0.729112625E-01 0.569528863E-01 0.430876948E-01 0.315057226E-01 0.222150851E-01 0.150686624E-01 0.980652403E-02 0.610502576E-02 0.362369162E-02 0.204300019E-02 0.108932343E-02 0.546551193E-03 0.256522675E-03 0.111840287E-03 0.449149375E-04 0.164452904E-04 0.542011594E-05 0.158215300E-05 0.400441166E-06 0.853704165E-07 0.147032360E-07 0.191571670E-08 0.168896119E-09 0.396544714E-09 0.550519130E-09 0.562014983E-10 0.632963848E-09 0.500337549E-08 0.299508294E-07 0.144985748E-06 0.591754258E-06 0.209612131E-05 0.658199906E-05 0.186205962E-04 0.480672279E-04 0.114384617E-03 0.253038452E-03 0.523993687E-03 0.102170312E-02 0.188511668E-02 0.330532109E-02 0.552775990E-02 0.884582661E-02 0.135834282E-01 0.200657193E-01 0.285797529E-01 0.393294878E-01 0.523920320E-01 0.676831231E-01 0.849395394E-01 0.103723414E+00 0.122727588E+00 0.141140267E+00 0.158197001E+00 0.173227921E+00 0.185683742E+00 0.195143089E+00 0.201307774E+00 0.203991935E+00 0.203110412E+00 0.198670447E+00 0.190767437E+00 0.179588303E+00 0.165418759E+00 0.148656234E+00 0.129822090E+00 0.109573618E+00 0.887063295E-01 0.681393519E-01 0.488756932E-01 0.319264829E-01 0.181907136E-01 0.829113927E-02 0.238474668E-02 0.144420227E-07
0.722377608E-02 0.177016892E-01 0.322743729E-01 0.508048050E-01 0.725818872E-01 0.966093242E-01 0.121804662E+00 0.147125736E+00 0.171641007E+00 0.194559485E+00 0.215234146E+00 0.233149424E+00 0.247902155E+00 0.259180486E+00 0.266745865E+00 0.270420462E+00 0.270082027E+00 0.265667468E+00 0.257186711E+00 0.244745538E+00 0.228576273E+00 0.209071502E+00 0.186812595E+00 0.162581891E+00 0.137345508E+00 0.112846084E+00 0.899820477E-01 0.694812238E-01 0.518361926E-01 0.372749344E-01 0.257701185E-01 0.170820430E-01 0.108237574E-01 0.653389981E-02 0.374347786E-02 0.202675699E-02 0.103173836E-02 0.490934704E-03 0.216837609E-03 0.881582164E-04 0.326564295E-04 0.108826707E-04 0.321031803E-05 0.820757350E-06 0.176683898E-06 0.307176755E-07 0.403926004E-08 0.358098218E-09 0.454971699E-09 0.623305296E-09 0.118453927E-09 0.134941758E-08 0.105737650E-07 0.627364969E-07 0.300948358E-06 0.121685332E-05 0.426859060E-05 0.132680407E-04 0.371367096E-04 0.947922090E-04 0.222912015E-03 0.486969104E-03 0.995127717E-03 0.191332772E-02 0.347839040E-02 0.600464409E-02 0.987902377E-02 0.155402664E-01 0.234402418E-01 0.339890495E-01 0.474902242E-01 0.640761256E-01 0.836560950E-01 0.105889238E+00 0.130190045E+00 0.155768514E+00 0.180903718E+00 0.204577297E+00 0.225904077E+00 0.244167998E+00 0.258828282E+00 0.269504875E+00 0.275954306E+00 0.278044045E+00 0.275731772E+00 0.269053936E+00 0.258121848E+00 0.243131101E+00 0.224377945E+00 0.202284709E+00 0.177427739E+00 0.150567189E+00 0.122667164E+00 0.948948264E-01 0.685848221E-01 0.451496951E-01 0.259173568E-01 0.118884733E-01 0.343301520E-02 0.197310914E-07
0.101517010E-01 0.244970899E-01 0.441587977E-01 0.688147098E-01 0.973816812E-01 0.128462136E+00 0.160624906E+00 0.192565039E+00 0.223178267E+00 0.251579195E+00 0.277086139E+00 0.299188882E+00 0.317511082E+00 0.331773609E+00 0.341763258E+00 0.347310305E+00 0.348275244E+00 0.344547689E+00 0.336058021E+00 0.322803855E+00 0.304890275E+00 0.282581776E+00 0.256358296E+00 0.226961881E+00 0.195416167E+00 0.163717702E+00 0.133145899E+00 0.104859889E+00 0.797754377E-01 0.584789217E-01 0.411943607E-01 0.278064106E-01 0.179298073E-01 0.110064102E-01 0.640753331E-02 0.352223357E-02 0.181904994E-02 0.877444923E-03 0.392576942E-03 0.161560427E-03 0.605381902E-04 0.203945237E-04 0.607851416E-05 0.156934095E-05 0.341007990E-06 0.598225611E-07 0.793533417E-08 0.708285652E-09 0.523443677E-09 0.702214120E-09 0.234732372E-09 0.267900924E-08 0.208198454E-07 0.122490221E-06 0.582487985E-06 0.233397009E-05 0.811001246E-05 0.249581753E-04 0.691259847E-04 0.174494256E-03 0.405536295E-03 0.874952471E-03 0.176454394E-02 0.334569742E-02 0.599357160E-02 0.101875560E-01 0.164908376E-01 0.255044438E-01 0.377964899E-01 0.538138300E-01 0.737901330E-01 0.976686701E-01 0.125057742E+00 0.155232564E+00 0.187186971E+00 0.219727993E+00 0.250807166E+00 0.279282212E+00 0.304245979E+00 0.325033188E+00 0.341194749E+00 0.352454484E+00 0.358663529E+00 0.359761208E+00 0.355747640E+00 0.346671611E+00 0.332630515E+00 0.313787788E+00 0.290400833E+00 0.262862533E+00 0.231749192E+00 0.197874933E+00 0.162338793E+00 0.126548722E+00 0.922020078E-01 0.611899495E-01 0.353917740E-01 0.163341686E-01 0.473076617E-02 0.257948720E-07