<?xml version="1.0"?>
<VTKFile type="StructuredGrid">
<StructuredGrid WholeExtent="     0   100     0   100     0     0">
<Piece Extent="     0   100     0   100     0     0">
<Points>
<DataArray type="Float32" NumberOfComponents="3"/>
0.000000000E+00 0.000000000E+00 0.000000000E+00 0.199999996E-01 0.000000000E+00 0.000000000E+00 0.399999991E-01 0.000000000E+00 0.000000000E+00 0.599999987E-01 0.000000000E+00 0.000000000E+00 0.799999982E-01 0.000000000E+00 0.000000000E+00 0.100000001E+00 0.000000000E+00 0.000000000E+00 0.119999997E+00 0.000000000E+00 0.000000000E+00 0.140000001E+00 0.000000000E+00 0.000000000E+00 0.159999996E+00 0.000000000E+00 0.000000000E+00 0.180000007E+00 0.000000000E+00 0.000000000E+00 0.200000003E+00 0.000000000E+00 0.000000000E+00 0.219999999E+00 0.000000000E+00 0.000000000E+00 0.239999995E+00 0.000000000E+00 0.000000000E+00 0.259999990E+00 0.000000000E+00 0.000000000E+00 0.280000001E+00 0.000000000E+00 0.000000000E+00 0.300000012E+00 0.000000000E+00 0.000000000E+00 0.319999993E+00 0.000000000E+00 0.000000000E+00 0.340000004E+00 0.000000000E+00 0.000000000E+00 0.360000014E+00 0.000000000E+00 0.000000000E+00 0.379999995E+00 0.000000000E+00 0.000000000E+00 0.400000006E+00 0.000000000E+00 0.000000000E+00 0.419999987E+00 0.000000000E+00 0.000000000E+00 0.439999998E+00 0.000000000E+00 0.000000000E+00 0.460000008E+00 0.000000000E+00 0.000000000E+00 0.479999989E+00 0.000000000E+00 0.000000000E+00 0.500000000E+00 0.000000000E+00 0.000000000E+00 0.519999981E+00 0.000000000E+00 0.000000000E+00 0.540000021E+00 0.000000000E+00 0.000000000E+00 0.560000002E+00 0.000000000E+00 0.000000000E+00 0.579999983E+00 0.000000000E+00 0.000000000E+00 0.600000024E+00 0.000000000E+00 0.000000000E+00 0.620000005E+00 0.000000000E+00 0.000000000E+00 0.639999986E+00 0.000000000E+00 0.000000000E+00 0.660000026E+00 0.000000000E+00 0.000000000E+00 0.680000007E+00 0.000000000E+00 0.000000000E+00 0.699999988E+00 0.000000000E+00 0.000000000E+00 0.720000029E+00 0.000000000E+00 0.000000000E+00 0.740000010E+00 0.000000000E+00 0.000000000E+00 0.759999990E+00 0.000000000E+00 0.000000000E+00 0.779999971E+00 0.000000000E+00 0.000000000E+00 0.800000012E+00 0.000000000E+00 0.000000000E+00 0.819999993E+00 0.000000000E+00 0.000000000E+00 0.839999974E+00 0.000000000E+00 0.000000000E+00 0.860000014E+00 0.000000000E+00 0.000000000E+00 0.879999995E+00 0.000000000E+00 0.000000000E+00 0.899999976E+00 0.000000000E+00 0.000000000E+00 0.920000017E+00 0.000000000E+00 0.000000000E+00 0.939999998E+00 0.000000000E+00 0.000000000E+00 0.959999979E+00 0.000000000E+00 0.000000000E+00 0.980000019E+00 0.000000000E+00 0.000000000E+00 0.100000000E+01 0.000000000E+00 0.000000000E+00 0.101999998E+01 0.000000000E+00 0.000000000E+00 0.103999996E+01 0.000000000E+00 0.000000000E+00 0.105999994E+01 0.000000000E+00 0.000000000E+00 0.108000004E+01 0.000000000E+00 0.000000000E+00 0.110000002E+01 0.000000000E+00 0.000000000E+00 0.112000000E+01 0.000000000E+00 0.000000000E+00 0.113999999E+01 0.000000000E+00 0.000000000E+00 0.115999997E+01 0.000000000E+00 0.000000000E+00 0.117999995E+01 0.000000000E+00 0.000000000E+00 0.120000005E+01 0.000000000E+00 0.000000000E+00 0.122000003E+01 0.000000000E+00 0.000000000E+00 0.124000001E+01 0.000000000E+00 0.000000000E+00 0.125999999E+01 0.000000000E+00 0.000000000E+00 0.127999997E+01 0.000000000E+00 0.000000000E+00 0.129999995E+01 0.000000000E+00 0.000000000E+00 0.132000005E+01 0.000000000E+00 0.000000000E+00 0.134000003E+01 0.000000000E+00 0.000000000E+00 0.136000001E+01 0.000000000E+00 0.000000000E+00 0.138000000E+01 0.000000000E+00 0.000000000E+00 0.139999998E+01 0.000000000E+00 0.000000000E+00 0.141999996E+01 0.000000000E+00 0.000000000E+00 0.144000006E+01 0.000000000E+00 0.000000000E+00 0.146000004E+01 0.000000000E+00 0.000000000E+00 0.148000002E+01 0.000000000E+00 0.000000000E+00 0.150000000E+01 0.000000000E+00 0.000000000E+00 0.151999998E+01 0.000000000E+00 0.000000000E+00 0.153999996E+01 0.000000000E+00 0.000000000E+00 0.155999994E+01 0.000000000E+00 0.000000000E+00 0.158000004E+01 0.000000000E+00 0.000000000E+00 0.160000002E+01 0.000000000E+00 0.000000000E+00 0.162000000E+01 0.000000000E+00 0.000000000E+00 0.163999999E+01 0.000000000E+00 0.000000000E+00 0.165999997E+01 0.000000000E+00 0.000000000E+00 0.167999995E+01 0.000000000E+00 0.000000000E+00 0.170000005E+01 0.000000000E+00 0.000000000E+00 0.172000003E+01 0.000000000E+00 0.000000000E+00 0.174000001E+01 0.000000000E+00 0.000000000E+00 0.175999999E+01 0.000000000E+00 0.000000000E+00 0.177999997E+01 0.000000000E+00 0.000000000E+00 0.179999995E+01 0.000000000E+00 0.000000000E+00 0.182000005E+01 0.000000000E+00 0.000000000E+00 0.184000003E+01 0.000000000E+00 0.000000000E+00 0.186000001E+01 0.000000000E+00 0.000000000E+00 0.188000000E+01 0.000000000E+00 0.000000000E+00 0.189999998E+01 0.000000000E+00 0.000000000E+00 0.191999996E+01 0.000000000E+00 0.000000000E+00 0.194000006E+01 0.000000000E+00 0.000000000E+00 0.196000004E+01 0.000000000E+00 0.000000000E+00 0.198000002E+01 0.000000000E+00 0.000000000E+00 0.200000000E+01 0.000000000E+00 0.000000000E+00
0.000000000E+00 0.999999978E-02 0.000000000E+00 0.199999996E-01 0.999999978E-02 0.000000000E+00 0.399999991E-01 0.999999978E-02 0.000000000E+00 0.599999987E-01 0.999999978E-02 0.000000000E+00 0.799999982E-01 0.999999978E-02 0.000000000E+00 0.100000001E+00 0.999999978E-02 0.000000000E+00 0.119999997E+00 0.999999978E-02 0.000000000E+00 0.140000001E+00 0.999999978E-02 0.000000000E+00 0.159999996E+00 0.999999978E-02 0.000000000E+00 0.180000007E+00 0.999999978E-02 0.000000000E+00 0.200000003E+00 0.999999978E-02 0.000000000E+00 0.219999999E+00 0.999999978E-02 0.000000000E+00 0.239999995E+00 0.999999978E-02 0.000000000E+00 0.259999990E+00 0.999999978E-02 0.000000000E+00 0.280000001E+00 0.999999978E-02 0.000000000E+00 0.300000012E+00 0.999999978E-02 0.000000000E+00 0.319999993E+00 0.999999978E-02 0.000000000E+00 0.340000004E+00 0.999999978E-02 0.000000000E+00 0.360000014E+00 0.999999978E-02 0.000000000E+00 0.379999995E+00 0.999999978E-02 0.000000000E+00 0.400000006E+00 0.999999978E-02 0.000000000E+00 0.419999987E+00 0.999999978E-02 0.000000000E+00 0.439999998E+00 0.999999978E-02 0.000000000E+00 0.460000008E+00 0.999999978E-02 0.000000000E+00 0.479999989E+00 0.999999978E-02 0.000000000E+00 0.500000000E+00 0.999999978E-02 0.000000000E+00 0.519999981E+00 0.999999978E-02 0.000000000E+00 0.540000021E+00 0.999999978E-02 0.000000000E+00 0.560000002E+00 0.999999978E-02 0.000000000E+00 0.579999983E+00 0.999999978E-02 0.000000000E+00 0.600000024E+00 0.999999978E-02 0.000000000E+00 0.620000005E+00 0.999999978E-02 0.000000000E+00 0.639999986E+00 0.999999978E-02 0.000000000E+00 0.660000026E+00 0.999999978E-02 0.000000000E+00 0.680000007E+00 0.999999978E-02 0.000000000E+00 0.699999988E+00 0.999999978E-02 0.000000000E+00 0.720000029E+00 0.999999978E-02 0.000000000E+00 0.740000010E+00 0.999999978E-02 0.000000000E+00 0.759999990E+00 0.999999978E-02 0.000000000E+00 0.779999971E+00 0.999999978E-02 0.000000000E+00 0.800000012E+00 0.999999978E-02 0.000000000E+00 0.819999993E+00 0.999999978E-02 0.000000000E+00 0.839999974E+00 0.999999978E-02 0.000000000E+00 0.860000014E+00 0.999999978E-02 0.000000000E+00 0.879999995E+00 0.999999978E-02 0.000000000E+00 0.899999976E+00 0.999999978E-02 0.000000000E+00 0.920000017E+00 0.999999978E-02 0.000000000E+00 0.939999998E+00 0.999999978E-02 0.000000000E+00 0.959999979E+00 0.999999978E-02 0.000000000E+00 0.980000019E+00 0.999999978E-02 0.000000000E+00 0.100000000E+01 0.999999978E-02 0.000000000E+00 0.101999998E+01 0.999999978E-02 0.000000000E+00 0.103999996E+01 0.999999978E-02 0.000000000E+00 0.105999994E+01 0.999999978E-02 0.000000000E+00 0.108000004E+01 0.999999978E-02 0.000000000E+00 0.110000002E+01 0.999999978E-02 0.000000000E+00 0.112000000E+01 0.999999978E-02 0.000000000E+00 0.113999999E+01 0.999999978E-02 0.000000000E+00 0.115999997E+01 0.999999978E-02 0.000000000E+00 0.117999995E+01 0.999999978E-02 0.000000000E+00 0.120000005E+01 0.999999978E-02 0.000000000E+00 0.122000003E+01 0.999999978E-02 0.000000000E+00 0.124000001E+01 0.999999978E-02 0.000000000E+00 0.125999999E+01 0.999999978E-02 0.000000000E+00 0.127999997E+01 0.999999978E-02 0.000000000E+00 0.129999995E+01 0.999999978E-02 0.000000000E+00 0.132000005E+01 0.999999978E-02 0.000000000E+00 0.134000003E+01 0.999999978E-02 0.000000000E+00 0.136000001E+01 0.999999978E-02 0.000000000E+00 0.138000000E+01 0.999999978E-02 0.000000000E+00 0.139999998E+01 0.999999978E-02 0.000000000E+00 0.141999996E+01 0.999999978E-02 0.000000000E+00 0.144000006E+01 0.999999978E-02 0.000000000E+00 0.146000004E+01 0.999999978E-02 0.000000000E+00 0.148000002E+01 0.999999978E-02 0.000000000E+00 0.150000000E+01 0.999999978E-02 0.000000000E+00 0.151999998E+01 0.999999978E-02 0.000000000E+00 0.153999996E+01 0.999999978E-02 0.000000000E+00 0.155999994E+01 0.999999978E-02 0.000000000E+00 0.158000004E+01 0.999999978E-02 0.000000000E+00 0.160000002E+01 0.999999978E-02 0.000000000E+00 0.162000000E+01 0.999999978E-02 0.000000000E+00 0.163999999E+01 0.999999978E-02 0.000000000E+00 0.165999997E+01 0.999999978E-02 0.000000000E+00 0.167999995E+01 0.999999978E-02 0.000000000E+00 0.170000005E+01 0.999999978E-02 0.000000000E+00 0.172000003E+01 0.999999978E-02 0.000000000E+00 0.174000001E+01 0.999999978E-02 0.000000000E+00 0.175999999E+01 0.999999978E-02 0.000000000E+00 0.177999997E+01 0.999999978E-02 0.000000000E+00 0.179999995E+01 0.999999978E-02 0.000000000E+00 0.182000005E+01 0.999999978E-02 0.000000000E+00 0.184000003E+01 0.999999978E-02 0.000000000E+00 0.186000001E+01 0.999999978E-02 0.000000000E+00 0.188000000E+01 0.999999978E-02 0.000000000E+00 0.189999998E+01 0.999999978E-02 0.000000000E+00 0.191999996E+01 0.999999978E-02 0.000000000E+00 0.194000006E+01 0.999999978E-02 0.000000000E+00 0.196000004E+01 0.999999978E-02 0.000000000E+00 0.198000002E+01 0.999999978E-02 0.000000000E+00 0.200000000E+01 0.999999978E-02 0.000000000E+00
[...]
<CellData Scalars="Temperature, U, V">
<DataArray type="Float32" Name="Temp, K"/>
0.133259197E-27 0.105141223E-25 0.389701922E-24 0.776326773E-23 0.906451541E-22 0.662829761E-21 0.321273254E-20 0.108638719E-19 0.268368814E-19 0.504138117E-19 0.744816817E-19 0.889401526E-19 0.877290051E-19 0.727167562E-19 0.513360954E-19 0.311958793E-19 0.164532589E-19 0.758036634E-20 0.306605278E-20 0.109286967E-20 0.344248978E-21 0.960159968E-22 0.237419885E-22 0.520775835E-23 0.101333473E-23 0.190318721E-24 0.343721241E-25 0.594586844E-26 0.981069580E-27 0.153722420E-27 0.227652533E-28 0.317026689E-29 0.412873771E-30 0.499846118E-31 0.558861532E-32 0.572899947E-33 0.534155596E-34 0.448907331E-35 0.336600702E-36 0.222589142E-37 0.234818646E-35 0.224542668E-29 0.111080865E-23 0.660235178E-21 0.171057880E-15 0.323497231E-13 0.284588911E-11 0.138592346E-09 0.366402464E-08 0.516874632E-08 0.266692751E-09 0.732886668E-11 0.117615566E-12 0.107423482E-14 0.448979202E-17 0.180877175E-22 0.265130542E-25 0.550386674E-31 0.611015456E-37 0.296761664E-37 0.412905126E-36 0.511749894E-35 0.570837391E-34 0.578340925E-33 0.536562258E-32 0.459215802E-31 0.364983943E-30 0.271043832E-29 0.189124816E-28 0.124638302E-27 0.779547349E-27 0.464815411E-26 0.265343843E-25 0.145603952E-24 0.770965941E-24 0.395357246E-23 0.180332136E-22 0.731391757E-22 0.263523037E-21 0.842125096E-21 0.238109291E-20 0.593695879E-20 0.129957538E-19 0.248290943E-19 0.410946947E-19 0.583589752E-19 0.702420709E-19 0.705428609E-19 0.579428710E-19 0.379520579E-19 0.192032548E-19 0.722099917E-20 0.192797686E-20 0.347051946E-21 0.397431216E-22 0.270631691E-23 0.100401366E-24 0.176856144E-26 0.109024885E-28 0.672210649E-35
0.895254899E-26 0.627123515E-24 0.208894422E-22 0.378720761E-21 0.407876904E-20 0.279026826E-19 0.128369448E-18 0.417859049E-18 0.100662028E-17 0.186513781E-17 0.274431023E-17 0.329011316E-17 0.328026971E-17 0.276379468E-17 0.199285284E-17 0.124197323E-17 0.674187923E-18 0.320705601E-18 0.134313271E-18 0.497006140E-19 0.162919619E-19 0.473966615E-20 0.122512739E-20 0.281518305E-21 0.575067862E-22 0.113366925E-22 0.214906024E-23 0.390269581E-24 0.676234433E-25 0.111325923E-25 0.173332790E-26 0.253989980E-27 0.348411440E-28 0.444824403E-29 0.525219387E-30 0.569500741E-31 0.562661648E-32 0.502085183E-33 0.400631663E-34 0.283553807E-35 0.115165114E-31 0.962533641E-26 0.419813548E-20 0.150542570E-17 0.587200191E-15 0.886172442E-13 0.720401256E-11 0.338951145E-09 0.884393980E-08 0.124354775E-07 0.641578790E-09 0.179039561E-10 0.298222357E-12 0.296699145E-14 0.159943858E-16 0.363475569E-19 0.866704563E-22 0.203418454E-27 0.250184549E-33 0.375423293E-35 0.489881933E-34 0.570822766E-33 0.599957292E-32 0.573886804E-31 0.503587328E-30 0.408292409E-29 0.307842027E-28 0.217124214E-27 0.144034089E-26 0.903173707E-26 0.537828417E-25 0.305468981E-24 0.166154321E-23 0.868861104E-23 0.438403579E-22 0.214193230E-21 0.932762463E-21 0.361947054E-20 0.125039933E-19 0.383987677E-19 0.104582319E-18 0.251823169E-18 0.533823128E-18 0.990779670E-18 0.159869590E-17 0.222249596E-17 0.263143999E-17 0.261477851E-17 0.214000744E-17 0.140856688E-17 0.723576034E-18 0.279563395E-18 0.777320944E-19 0.147807837E-19 0.181368053E-20 0.134153925E-21 0.547576477E-23 0.107399012E-24 0.745590170E-27 0.491871468E-33
0.372862848E-24 0.233260506E-22 0.702309460E-21 0.116528843E-19 0.116381688E-18 0.748551512E-18 0.328304614E-17 0.103240660E-16 0.243183507E-16 0.445236880E-16 0.653121695E-16 0.786492326E-16 0.792558141E-16 0.678505816E-16 0.499341076E-16 0.318851160E-16 0.177942167E-16 0.872830973E-17 0.377958674E-17 0.144966297E-17 0.493699698E-18 0.149545169E-18 0.403323832E-19 0.968982553E-20 0.207367657E-20 0.428155077E-21 0.849975979E-22 0.161653866E-22 0.293408057E-23 0.506157118E-24 0.826260246E-25 0.127029917E-25 0.182985397E-26 0.245587509E-27 0.305204917E-28 0.348819805E-29 0.363847734E-30 0.343410595E-31 0.290425642E-32 0.238578058E-33 0.155347826E-28 0.591607695E-23 0.155576744E-19 0.517958910E-17 0.133877507E-14 0.176871931E-12 0.135594791E-10 0.620253127E-09 0.159993032E-07 0.224158772E-07 0.115649001E-08 0.326927582E-10 0.561087580E-12 0.594075833E-14 0.369762075E-16 0.124427067E-18 0.319216213E-21 0.102803632E-24 0.278531388E-30 0.288482293E-33 0.354087661E-32 0.389474075E-31 0.387202526E-30 0.350975492E-29 0.292321378E-28 0.225272463E-27 0.161639583E-26 0.108608189E-25 0.686954005E-25 0.410997666E-24 0.233636875E-23 0.126720162E-22 0.658341723E-22 0.328821787E-21 0.158450475E-20 0.739098075E-20 0.307897174E-19 0.114522303E-18 0.380012590E-18 0.112331148E-17 0.295159177E-17 0.687327118E-17 0.141282416E-16 0.255020941E-16 0.401541593E-16 0.546833188E-16 0.637135933E-16 0.626395026E-16 0.510537959E-16 0.337287031E-16 0.175554312E-16 0.694920223E-17 0.200469165E-17 0.400879306E-18 0.524468471E-19 0.419181328E-20 0.187222593E-21 0.406595516E-23 0.316057615E-25 0.222015897E-31
0.108053489E-22 0.606592132E-21 0.165854091E-19 0.252996008E-18 0.235336420E-17 0.142883407E-16 0.599497362E-16 0.182637231E-15 0.421532378E-15 0.763691840E-15 0.111781763E-14 0.135258001E-14 0.137768501E-14 0.119809020E-14 0.899503991E-15 0.588120863E-15 0.337159453E-15 0.170378163E-15 0.762049536E-16 0.302618369E-16 0.106940830E-16 0.336833901E-17 0.946528299E-18 0.237400164E-18 0.531406287E-19 0.114719870E-19 0.238065226E-20 0.473256060E-21 0.897926227E-22 0.161964219E-22 0.276561696E-23 0.445010340E-24 0.671412890E-25 0.944676573E-26 0.123209336E-26 0.147972002E-27 0.162426943E-28 0.161596205E-29 0.144324058E-30 0.389719430E-31 0.101065778E-25 0.291442579E-22 0.385867510E-19 0.119505223E-16 0.254571919E-14 0.307486160E-12 0.225210701E-10 0.100610176E-08 0.256866208E-07 0.358519756E-07 0.185022508E-08 0.528920067E-10 0.930479977E-12 0.103339028E-13 0.707109987E-16 0.285776710E-18 0.787337407E-21 0.503604562E-24 0.150185100E-27 0.155306681E-31 0.175493490E-30 0.182874571E-29 0.172559351E-28 0.148701520E-27 0.117913722E-26 0.866206329E-26 0.593109632E-25 0.380636875E-24 0.230117274E-23 0.131665989E-22 0.716071258E-22 0.371653981E-21 0.184778154E-20 0.883129203E-20 0.407108862E-19 0.181589538E-18 0.724747942E-18 0.258759053E-17 0.825812456E-17 0.235261052E-16 0.597051356E-16 0.134596460E-15 0.268520191E-15 0.471750288E-15 0.725281226E-15 0.967996664E-15 0.111011704E-14 0.107975027E-14 0.875987974E-15 0.580309313E-15 0.305556839E-15 0.123639149E-15 0.368952563E-16 0.773135940E-17 0.107416216E-17 0.923733076E-19 0.449475405E-20 0.107595743E-21 0.932127611E-24 0.694216213E-30
0.233405211E-21 0.118121795E-19 0.294615187E-18 0.414973600E-17 0.361009049E-16 0.207683452E-15 0.836292728E-15 0.247458749E-14 0.560684862E-14 0.100641905E-13 0.147093929E-13 0.178898949E-13 0.184175066E-13 0.162652721E-13 0.124517562E-13 0.833070287E-14 0.490212356E-14 0.254973773E-14 0.117673915E-14 0.483281742E-15 0.177002993E-15 0.578971967E-16 0.169284001E-16 0.442604204E-17 0.103469138E-17 0.233161380E-18 0.504894632E-19 0.104714837E-19 0.207275487E-20 0.390101033E-21 0.695222990E-22 0.116806981E-22 0.184126900E-23 0.270878170E-24 0.369747858E-25 0.465261226E-26 0.535788318E-27 0.560052544E-28 0.526417742E-29 0.126262748E-28 0.584212267E-25 0.894111169E-22 0.799281620E-19 0.230935030E-16 0.436612408E-14 0.493732930E-12 0.348499320E-10 0.152543045E-08 0.385762959E-07 0.536337197E-07 0.276992340E-08 0.799785238E-10 0.143689834E-11 0.165811765E-13 0.121530236E-15 0.550038505E-18 0.162310184E-20 0.153942399E-23 0.867595521E-27 0.738269180E-30 0.638582172E-29 0.632598533E-28 0.568401630E-27 0.467102569E-26 0.353669701E-25 0.248352617E-24 0.162703696E-23 0.999805151E-23 0.579096353E-22 0.317582678E-21 0.165590855E-20 0.824066972E-20 0.392822418E-19 0.179970952E-18 0.794992068E-18 0.339616599E-17 0.130050808E-16 0.446317409E-16 0.137172645E-15 0.377071381E-15 0.925276769E-15 0.202137425E-14 0.391742235E-14 0.670382278E-14 0.100701172E-13 0.131779810E-13 0.148789536E-13 0.143171675E-13 0.115575223E-13 0.767107257E-14 0.408040970E-14 0.168429600E-14 0.518501107E-15 0.113476448E-15 0.166794767E-16 0.153702865E-17 0.811336291E-19 0.213148106E-20 0.204876943E-22 0.161102054E-28
0.393096018E-20 0.180136608E-18 0.411633569E-17 0.537623855E-16 0.439149764E-15 0.240228962E-14 0.931167544E-14 0.268242222E-13 0.597648762E-13 0.106402653E-12 0.155379222E-12 0.189985180E-12 0.197669436E-12 0.177222400E-12 0.138267381E-12 0.945951759E-13 0.570901494E-13 0.305361036E-13 0.145271351E-13 0.616361100E-14 0.233688534E-14 0.792817386E-15 0.240874624E-15 0.655581068E-16 0.159815496E-16 0.375320340E-17 0.846626646E-18 0.182860553E-18 0.376895928E-19 0.738617438E-20 0.137091070E-20 0.239958714E-21 0.394254095E-22 0.604925127E-23 0.861886844E-24 0.113312954E-24 0.136493105E-25 0.149435996E-26 0.147352262E-27 0.963510612E-28 0.204012964E-24 0.218773141E-21 0.149189029E-18 0.403466343E-16 0.700735704E-14 0.752540879E-12 0.514949229E-10 0.221358909E-08 0.554723911E-07 0.768241222E-07 0.397270705E-08 0.115771524E-09 0.211860997E-11 0.252399216E-13 0.195139265E-15 0.957735459E-18 0.301784144E-20 0.375850530E-23 0.303280926E-26 0.180800465E-28 0.178360926E-27 0.168521990E-26 0.144636738E-25 0.113683817E-24 0.824209713E-24 0.554723912E-23 0.348590503E-22 0.205595731E-21 0.114348723E-20 0.602354174E-20 0.301725308E-19 0.144250399E-18 0.660483712E-18 0.290565864E-17 0.123190851E-16 0.504784256E-16 0.185728067E-15 0.613498764E-15 0.181811916E-14 0.482810262E-14 0.114678893E-13 0.243021054E-13 0.457927289E-13 0.763914892E-13 0.112190808E-12 0.144023126E-12 0.160144630E-12 0.152456390E-12 0.122422986E-12 0.813540451E-13 0.436626036E-13 0.183516668E-13 0.581351831E-14 0.132469600E-14 0.205256346E-15 0.201892735E-16 0.115137947E-17 0.330567222E-19 0.351017152E-21 0.290246646E-27
0.533074252E-19 0.222145164E-17 0.467044173E-16 0.567916586E-15 0.437206771E-14 0.228175887E-13 0.853712514E-13 0.239928926E-12 0.526443093E-12 0.930495156E-12 0.135829206E-11 0.166990597E-11 0.175568121E-11 0.159740645E-11 0.126944971E-11 0.887501606E-12 0.548916598E-12 0.301655375E-12 0.147785064E-12 0.647076522E-13 0.253675983E-13 0.891536990E-14 0.281092161E-14 0.795276534E-15 0.201870398E-15 0.493306132E-16 0.115726571E-16 0.259848429E-17 0.556644007E-18 0.113368799E-18 0.218689235E-19 0.397915355E-20 0.679866077E-21 0.108534008E-21 0.160999285E-22 0.220559100E-23 0.277116260E-24 0.316826169E-25 0.326661562E-26 0.637476986E-27 0.557108017E-24 0.467553138E-21 0.260092830E-18 0.660648112E-16 0.107405302E-13 0.110545243E-11 0.736363540E-10 0.311365600E-08 0.773359830E-07 0.106688795E-06 0.552766100E-08 0.162509117E-09 0.302358073E-11 0.370237627E-13 0.299035559E-15 0.156400384E-17 0.524584010E-20 0.802471990E-23 0.832497701E-26 0.397976186E-27 0.394718610E-26 0.356823543E-25 0.293402713E-24 0.221195138E-23 0.153969319E-22 0.995747377E-22 0.601657523E-21 0.341371461E-20 0.182714956E-19 0.926422317E-19 0.446685647E-18 0.205538976E-17 0.905554652E-17 0.383173122E-16 0.156164394E-15 0.614680216E-15 0.217606830E-14 0.692762074E-14 0.198204490E-13 0.509057213E-13 0.117164877E-12 0.241084876E-12 0.442086526E-12 0.719485669E-12 0.103376487E-11 0.130250877E-11 0.142679586E-11 0.134396248E-11 0.107331516E-11 0.713697330E-12 0.386067290E-12 0.164954733E-12 0.536502266E-13 0.126916080E-13 0.206599107E-14 0.216098023E-15 0.132619146E-16 0.414411774E-18 0.484108140E-20 0.419281574E-26
0.596537894E-18 0.227008999E-16 0.440908972E-15 0.501098254E-14 0.364873299E-13 0.182239179E-12 0.659809447E-12 0.181254111E-11 0.392173707E-11 0.688728631E-11 0.100539204E-10 0.124289112E-10 0.132018606E-10 0.121849293E-10 0.985780207E-11 0.703785207E-11 0.445735289E-11 0.251447604E-11 0.126734929E-11 0.572048485E-12 0.231625537E-12 0.842261035E-13 0.275227330E-13 0.808364877E-14 0.213355508E-14 0.541688581E-15 0.131945604E-15 0.307469783E-16 0.683339033E-17 0.144360305E-17 0.288841389E-18 0.545187439E-19 0.966520237E-20 0.160162089E-20 0.246753596E-21 0.351331479E-22 0.459179367E-23 0.546658914E-24 0.587595433E-25 0.668996264E-26 0.131124677E-23 0.912998279E-21 0.432081386E-18 0.103426091E-15 0.159193185E-13 0.157983869E-11 0.102740191E-09 0.427801750E-08 0.105312395E-06 0.144730535E-06 0.751820295E-08 0.222942512E-09 0.421190296E-11 0.528458807E-13 0.443059324E-15 0.244364973E-17 0.869761431E-20 0.156715533E-22 0.202361850E-25 0.738995729E-26 0.708984178E-25 0.615056063E-24 0.485906093E-23 0.352315599E-22 0.236063433E-21 0.147055971E-20 0.856358116E-20 0.468461106E-19 0.241803996E-18 0.118244269E-17 0.549831999E-17 0.243944314E-16 0.103592189E-15 0.422285232E-15 0.165694362E-14 0.627390189E-14 0.213994573E-13 0.657426994E-13 0.181812139E-12 0.452133746E-12 0.100943700E-11 0.201876558E-11 0.360571469E-11 0.572945337E-11 0.805919480E-11 0.997165805E-11 0.107648855E-10 0.100344585E-10 0.796900913E-11 0.529974458E-11 0.288682641E-11 0.125205141E-11 0.417228562E-12 0.102194484E-12 0.174214738E-13 0.193086306E-14 0.127028883E-15 0.430315154E-17 0.550772653E-19 0.497732096E-25
0.561769125E-17 0.196011206E-15 0.353092672E-14 0.376469282E-13 0.260153986E-12 0.124709628E-11 0.437939095E-11 0.117794134E-10 0.251615551E-10 0.439349078E-10 0.641555004E-10 0.797492766E-10 0.855600382E-10 0.800737462E-10 0.659103883E-10 0.480195397E-10 0.311177820E-10 0.180036559E-10 0.932651959E-11 0.433526305E-11 0.181098777E-11 0.680552945E-12 0.230195854E-12 0.700946056E-13 0.192095519E-13 0.505968101E-14 0.127766926E-14 0.308482491E-15 0.710045154E-16 0.155309529E-16 0.321700053E-17 0.628609858E-18 0.115386241E-18 0.198032693E-19 0.316129184E-20 0.466655831E-21 0.632792033E-22 0.782317304E-23 0.874155209E-24 0.901540564E-25 0.279847578E-23 0.167191811E-20 0.692542596E-18 0.156708586E-15 0.230045051E-13 0.221044060E-11 0.140625039E-09 0.577028514E-08 0.140763348E-06 0.192729871E-06 0.100449427E-07 0.300451664E-09 0.575884739E-11 0.738746222E-13 0.640119210E-15 0.369800729E-17 0.139266907E-19 0.287300491E-22 0.527931602E-25 0.114064320E-24 0.105353616E-23 0.879603338E-23 0.669479366E-22 0.468072145E-21 0.302636083E-20 0.182026490E-19 0.102388604E-18 0.541171025E-18 0.269927811E-17 0.127550845E-16 0.573041810E-16 0.245568166E-15 0.100679903E-14 0.396005521E-14 0.149817445E-13 0.546466457E-13 0.179824092E-12 0.533792249E-12 0.142859368E-11 0.344371450E-11 0.746572769E-11 0.145254650E-10 0.252920879E-10 0.392694627E-10 0.541138280E-10 0.657874102E-10 0.700197539E-10 0.646032117E-10 0.510169407E-10 0.339207967E-10 0.185911286E-10 0.817419049E-11 0.278567143E-11 0.704730924E-12 0.125437326E-12 0.146810563E-13 0.103157527E-14 0.377368564E-16 0.527113297E-18 0.495172082E-24
0.452458001E-16 0.145322955E-14 0.243727513E-13 0.244658704E-12 0.160962237E-11 0.742548471E-11 0.253447575E-10 0.668499908E-10 0.141115397E-09 0.245128445E-09 0.358133190E-09 0.447611281E-09 0.484909946E-09 0.459950689E-09 0.384966586E-09 0.286012325E-09 0.189488328E-09 0.112339860E-09 0.597569147E-10 0.285757598E-10 0.123018002E-10 0.477195280E-11 0.166873926E-11 0.526118483E-12 0.149506424E-12 0.407943265E-13 0.106631394E-13 0.266321495E-14 0.633799550E-15 0.143283537E-15 0.306678503E-16 0.619169049E-17 0.117435504E-17 0.208296331E-18 0.343757166E-19 0.524845493E-20 0.736566975E-21 0.943157302E-22 0.109254672E-22 0.114009048E-23 0.563663402E-23 0.291914118E-20 0.107991665E-17 0.231663088E-15 0.325960030E-13 0.304133368E-11 0.189545574E-09 0.766760522E-08 0.185304941E-06 0.252792859E-06 0.132291333E-07 0.399188682E-09 0.775871728E-11 0.101605417E-12 0.907152911E-15 0.546426827E-17 0.217155510E-19 0.502735438E-22 0.231615207E-24 0.147723079E-23 0.131567807E-22 0.106008239E-21 0.779359940E-21 0.526732862E-20 0.329411463E-19 0.191731354E-18 0.104397090E-17 0.534227568E-17 0.257994473E-16 0.118024790E-15 0.513214616E-15 0.212785794E-14 0.843615762E-14 0.320660246E-13 0.117136999E-12 0.412156014E-12 0.131017885E-11 0.376244565E-11 0.975603886E-11 0.228213802E-10 0.480910312E-10 0.911141926E-10 0.154799257E-09 0.235033465E-09 0.317510573E-09 0.379491660E-09 0.398387129E-09 0.363914066E-09 0.285771490E-09 0.189911170E-09 0.104658920E-09 0.465971914E-10 0.162124463E-10 0.422670926E-11 0.783317421E-12 0.964999158E-13 0.721641408E-14 0.284012821E-15 0.431267694E-17 0.419590067E-23
0.315986012E-15 0.937828526E-14 0.146979854E-12 0.139381464E-11 0.875642180E-11 0.389700598E-10 0.129530150E-09 0.335486611E-09 0.700458247E-09 0.121100352E-08 0.177042214E-08 0.222453145E-08 0.243258991E-08 0.233742181E-08 0.198806283E-08 0.150514856E-08 0.101867814E-08 0.618312068E-09 0.337401440E-09 0.165817651E-09 0.734859951E-10 0.293911839E-10 0.106130963E-10 0.346013647E-11 0.101820006E-11 0.287406194E-12 0.776477339E-13 0.200301540E-13 0.492052959E-14 0.114774436E-14 0.253388503E-15 0.527583603E-16 0.103190988E-16 0.188766400E-17 0.321362098E-18 0.506329305E-19 0.733655889E-20 0.970565889E-21 0.116248462E-21 0.124969696E-22 0.115891784E-22 0.491452720E-20 0.164802812E-17 0.336014688E-15 0.454748239E-13 0.412842763E-11 0.252295934E-09 0.100634683E-07 0.240852017E-06 0.327407065E-06 0.172168164E-07 0.524253807E-09 0.103297084E-10 0.137953586E-12 0.126639843E-14 0.792820109E-17 0.331687244E-19 0.850131479E-22 0.184907083E-23 0.162513598E-22 0.139926002E-21 0.109089290E-20 0.776632607E-20 0.508604601E-19 0.308358483E-18 0.174057123E-17 0.919311989E-17 0.456364908E-16 0.213788654E-15 0.948537140E-15 0.399895986E-14 0.160678677E-13 0.616976088E-13 0.226963115E-12 0.801687872E-12 0.272471824E-11 0.837778111E-11 0.233028510E-10 0.586105400E-10 0.133186989E-09 0.273086109E-09 0.504305653E-09 0.836722913E-09 0.124329991E-08 0.164772296E-08 0.193729988E-08 0.200691219E-08 0.181557269E-08 0.141785583E-08 0.941589251E-09 0.521478916E-09 0.234875036E-09 0.833061675E-10 0.223355744E-10 0.429868814E-11 0.555718557E-12 0.440780055E-13 0.185956766E-14 0.305809566E-16 0.307028829E-22
0.193642214E-14 0.533054978E-13 0.783448718E-12 0.704124953E-11 0.423585715E-10 0.182277998E-09 0.591011629E-09 0.150490476E-08 0.311005488E-08 0.535336975E-08 0.783175391E-08 0.989105420E-08 0.109138973E-07 0.106179474E-07 0.917150711E-08 0.707072090E-08 0.488465268E-08 0.303281622E-08 0.169615000E-08 0.855832571E-09 0.390036420E-09 0.160662844E-09 0.598355046E-10 0.201476752E-10 0.613140788E-11 0.178792712E-11 0.498544890E-12 0.132629015E-12 0.335785070E-13 0.806798120E-14 0.183404021E-14 0.393101056E-15 0.791390294E-16 0.149008349E-16 0.261141416E-17 0.423667124E-18 0.632365684E-19 0.862220920E-20 0.106510611E-20 0.118084008E-21 0.303848994E-22 0.804298567E-20 0.247214920E-17 0.480140203E-15 0.626579748E-13 0.554266095E-11 0.332338379E-09 0.130710962E-07 0.309670980E-06 0.419507671E-06 0.221838530E-07 0.681914136E-09 0.136200756E-10 0.185374543E-12 0.174708338E-14 0.113415379E-16 0.498447114E-19 0.140951231E-21 0.168025764E-22 0.153609697E-21 0.128192750E-20 0.969465129E-20 0.669947084E-19 0.426097406E-18 0.250990710E-17 0.137682195E-16 0.706784871E-16 0.341013559E-15 0.155245713E-14 0.669188809E-14 0.273985428E-13 0.106854745E-12 0.397986873E-12 0.141895805E-11 0.485309883E-11 0.159534486E-10 0.475054128E-10 0.128138264E-09 0.312965542E-09 0.691607993E-09 0.138116496E-08 0.248837506E-08 0.403536848E-08 0.587292082E-08 0.764100783E-08 0.884299745E-08 0.904432085E-08 0.810595058E-08 0.629631813E-08 0.417800150E-08 0.232436848E-08 0.105816877E-08 0.382092247E-09 0.105158063E-09 0.209671846E-10 0.283620631E-11 0.237828962E-12 0.107177323E-13 0.190184030E-15 0.196337735E-21