<?xml version="1.0"?>
<VTKFile type="StructuredGrid">
<StructuredGrid WholeExtent="     0   100     0   100     0     0">
<Piece Extent="     0   100     0   100     0     0">
<Points>
<DataArray type="Float32" NumberOfComponents="3"/>
0.000000000E+00 0.000000000E+00 0.000000000E+00 0.199999996E-01 0.000000000E+00 0.000000000E+00 0.399999991E-01 0.000000000E+00 0.000000000E+00 0.599999987E-01 0.000000000E+00 0.000000000E+00 0.799999982E-01 0.000000000E+00 0.000000000E+00 0.100000001E+00 0.000000000E+00 0.000000000E+00 0.119999997E+00 0.000000000E+00 0.000000000E+00 0.140000001E+00 0.000000000E+00 0.000000000E+00 0.159999996E+00 0.000000000E+00 0.000000000E+00 0.180000007E+00 0.000000000E+00 0.000000000E+00 0.200000003E+00 0.000000000E+00 0.000000000E+00 0.219999999E+00 0.000000000E+00 0.000000000E+00 0.239999995E+00 0.000000000E+00 0.000000000E+00 0.259999990E+00 0.000000000E+00 0.000000000E+00 0.280000001E+00 0.000000000E+00 0.000000000E+00 0.300000012E+00 0.000000000E+00 0.000000000E+00 0.319999993E+00 0.000000000E+00 0.000000000E+00 0.340000004E+00 0.000000000E+00 0.000000000E+00 0.360000014E+00 0.000000000E+00 0.000000000E+00 0.379999995E+00 0.000000000E+00 0.000000000E+00 0.400000006E+00 0.000000000E+00 0.000000000E+00 0.419999987E+00 0.000000000E+00 0.000000000E+00 0.439999998E+00 0.000000000E+00 0.000000000E+00 0.460000008E+00 0.000000000E+00 0.000000000E+00 0.479999989E+00 0.000000000E+00 0.000000000E+00 0.500000000E+00 0.000000000E+00 0.000000000E+00 0.519999981E+00 0.000000000E+00 0.000000000E+00 0.540000021E+00 0.000000000E+00 0.000000000E+00 0.560000002E+00 0.000000000E+00 0.000000000E+00 0.579999983E+00 0.000000000E+00 0.000000000E+00 0.600000024E+00 0.000000000E+00 0.000000000E+00 0.620000005E+00 0.000000000E+00 0.000000000E+00 0.639999986E+00 0.000000000E+00 0.000000000E+00 0.660000026E+00 0.000000000E+00 0.000000000E+00 0.680000007E+00 0.000000000E+00 0.000000000E+00 0.699999988E+00 0.000000000E+00 0.000000000E+00 0.720000029E+00 0.000000000E+00 0.000000000E+00 0.740000010E+00 0.000000000E+00 0.000000000E+00 0.759999990E+00 0.000000000E+00 0.000000000E+00 0.779999971E+00 0.000000000E+00 0.000000000E+00 0.800000012E+00 0.000000000E+00 0.000000000E+00 0.819999993E+00 0.000000000E+00 0.000000000E+00 0.839999974E+00 0.000000000E+00 0.000000000E+00 0.860000014E+00 0.000000000E+00 0.000000000E+00 0.879999995E+00 0.000000000E+00 0.000000000E+00 0.899999976E+00 0.000000000E+00 0.000000000E+00 0.920000017E+00 0.000000000E+00 0.000000000E+00 0.939999998E+00 0.000000000E+00 0.000000000E+00 0.959999979E+00 0.000000000E+00 0.000000000E+00 0.980000019E+00 0.000000000E+00 0.000000000E+00 0.100000000E+01 0.000000000E+00 0.000000000E+00 0.101999998E+01 0.000000000E+00 0.000000000E+00 0.103999996E+01 0.000000000E+00 0.000000000E+00 0.105999994E+01 0.000000000E+00 0.000000000E+00 0.108000004E+01 0.000000000E+00 0.000000000E+00 0.110000002E+01 0.000000000E+00 0.000000000E+00 0.112000000E+01 0.000000000E+00 0.000000000E+00 0.113999999E+01 0.000000000E+00 0.000000000E+00 0.115999997E+01 0.000000000E+00 0.000000000E+00 0.117999995E+01 0.000000000E+00 0.000000000E+00 0.120000005E+01 0.000000000E+00 0.000000000E+00 0.122000003E+01 0.000000000E+00 0.000000000E+00 0.124000001E+01 0.000000000E+00 0.000000000E+00 0.125999999E+01 0.000000000E+00 0.000000000E+00 0.127999997E+01 0.000000000E+00 0.000000000E+00 0.129999995E+01 0.000000000E+00 0.000000000E+00 0.132000005E+01 0.000000000E+00 0.000000000E+00 0.134000003E+01 0.000000000E+00 0.000000000E+00 0.136000001E+01 0.000000000E+00 0.000000000E+00 0.138000000E+01 0.000000000E+00 0.000000000E+00 0.139999998E+01 0.000000000E+00 0.000000000E+00 0.141999996E+01 0.000000000E+00 0.000000000E+00 0.144000006E+01 0.000000000E+00 0.000000000E+00 0.146000004E+01 0.000000000E+00 0.000000000E+00 0.148000002E+01 0.000000000E+00 0.000000000E+00 0.150000000E+01 0.000000000E+00 0.000000000E+00 0.151999998E+01 0.000000000E+00 0.000000000E+00 0.153999996E+01 0.000000000E+00 0.000000000E+00 0.155999994E+01 0.000000000E+00 0.000000000E+00 0.158000004E+01 0.000000000E+00 0.000000000E+00 0.160000002E+01 0.000000000E+00 0.000000000E+00 0.162000000E+01 0.000000000E+00 0.000000000E+00 0.163999999E+01 0.000000000E+00 0.000000000E+00 0.165999997E+01 0.000000000E+00 0.000000000E+00 0.167999995E+01 0.000000000E+00 0.000000000E+00 0.170000005E+01 0.000000000E+00 0.000000000E+00 0.172000003E+01 0.000000000E+00 0.000000000E+00 0.174000001E+01 0.000000000E+00 0.000000000E+00 0.175999999E+01 0.000000000E+00 0.000000000E+00 0.177999997E+01 0.000000000E+00 0.000000000E+00 0.179999995E+01 0.000000000E+00 0.000000000E+00 0.182000005E+01 0.000000000E+00 0.000000000E+00 0.184000003E+01 0.000000000E+00 0.000000000E+00 0.186000001E+01 0.000000000E+00 0.000000000E+00 0.188000000E+01 0.000000000E+00 0.000000000E+00 0.189999998E+01 0.000000000E+00 0.000000000E+00 0.191999996E+01 0.000000000E+00 0.000000000E+00 0.194000006E+01 0.000000000E+00 0.000000000E+00 0.196000004E+01 0.000000000E+00 0.000000000E+00 0.198000002E+01 0.000000000E+00 0.000000000E+00 0.200000000E+01 0.000000000E+00 0.000000000E+00
0.000000000E+00 0.999999978E-02 0.000000000E+00 0.199999996E-01 0.999999978E-02 0.000000000E+00 0.399999991E-01 0.999999978E-02 0.000000000E+00 0.599999987E-01 0.999999978E-02 0.000000000E+00 0.799999982E-01 0.999999978E-02 0.000000000E+00 0.100000001E+00 0.999999978E-02 0.000000000E+00 0.119999997E+00 0.999999978E-02 0.000000000E+00 0.140000001E+00 0.999999978E-02 0.000000000E+00 0.159999996E+00 0.999999978E-02 0.000000000E+00 0.180000007E+00 0.999999978E-02 0.000000000E+00 0.200000003E+00 0.999999978E-02 0.000000000E+00 0.219999999E+00 0.999999978E-02 0.000000000E+00 0.239999995E+00 0.999999978E-02 0.000000000E+00 0.259999990E+00 0.999999978E-02 0.000000000E+00 0.280000001E+00 0.999999978E-02 0.000000000E+00 0.300000012E+00 0.999999978E-02 0.000000000E+00 0.319999993E+00 0.999999978E-02 0.000000000E+00 0.340000004E+00 0.999999978E-02 0.000000000E+00 0.360000014E+00 0.999999978E-02 0.000000000E+00 0.379999995E+00 0.999999978E-02 0.000000000E+00 0.400000006E+00 0.999999978E-02 0.000000000E+00 0.419999987E+00 0.999999978E-02 0.000000000E+00 0.439999998E+00 0.999999978E-02 0.000000000E+00 0.460000008E+00 0.999999978E-02 0.000000000E+00 0.479999989E+00 0.999999978E-02 0.000000000E+00 0.500000000E+00 0.999999978E-02 0.000000000E+00 0.519999981E+00 0.999999978E-02 0.000000000E+00 0.540000021E+00 0.999999978E-02 0.000000000E+00 0.560000002E+00 0.999999978E-02 0.000000000E+00 0.579999983E+00 0.999999978E-02 0.000000000E+00 0.600000024E+00 0.999999978E-02 0.000000000E+00 0.620000005E+00 0.999999978E-02 0.000000000E+00 0.639999986E+00 0.999999978E-02 0.000000000E+00 0.660000026E+00 0.999999978E-02 0.000000000E+00 0.680000007E+00 0.999999978E-02 0.000000000E+00 0.699999988E+00 0.999999978E-02 0.000000000E+00 0.720000029E+00 0.999999978E-02 0.000000000E+00 0.740000010E+00 0.999999978E-02 0.000000000E+00 0.759999990E+00 0.999999978E-02 0.000000000E+00 0.779999971E+00 0.999999978E-02 0.000000000E+00 0.800000012E+00 0.999999978E-02 0.000000000E+00 0.819999993E+00 0.999999978E-02 0.000000000E+00 0.839999974E+00 0.999999978E-02 0.000000000E+00 0.860000014E+00 0.999999978E-02 0.000000000E+00 0.879999995E+00 0.999999978E-02 0.000000000E+00 0.899999976E+00 0.999999978E-02 0.000000000E+00 0.920000017E+00 0.999999978E-02 0.000000000E+00 0.939999998E+00 0.999999978E-02 0.000000000E+00 0.959999979E+00 0.999999978E-02 0.000000000E+00 0.980000019E+00 0.999999978E-02 0.000000000E+00 0.100000000E+01 0.999999978E-02 0.000000000E+00 0.101999998E+01 0.999999978E-02 0.000000000E+00 0.103999996E+01 0.999999978E-02 0.000000000E+00 0.105999994E+01 0.999999978E-02 0.000000000E+00 0.108000004E+01 0.999999978E-02 0.000000000E+00 0.110000002E+01 0.999999978E-02 0.000000000E+00 0.112000000E+01 0.999999978E-02 0.000000000E+00 0.113999999E+01 0.999999978E-02 0.000000000E+00 0.115999997E+01 0.999999978E-02 0.000000000E+00 0.117999995E+01 0.999999978E-02 0.000000000E+00 0.120000005E+01 0.999999978E-02 0.000000000E+00 0.122000003E+01 0.999999978E-02 0.000000000E+00 0.124000001E+01 0.999999978E-02 0.000000000E+00 0.125999999E+01 0.999999978E-02 0.000000000E+00 0.127999997E+01 0.999999978E-02 0.000000000E+00 0.129999995E+01 0.999999978E-02 0.000000000E+00 0.132000005E+01 0.999999978E-02 0.000000000E+00 0.134000003E+01 0.999999978E-02 0.000000000E+00 0.136000001E+01 0.999999978E-02 0.000000000E+00 0.138000000E+01 0.999999978E-02 0.000000000E+00 0.139999998E+01 0.999999978E-02 0.000000000E+00 0.141999996E+01 0.999999978E-02 0.000000000E+00 0.144000006E+01 0.999999978E-02 0.000000000E+00 0.146000004E+01 0.999999978E-02 0.000000000E+00 0.148000002E+01 0.999999978E-02 0.000000000E+00 0.150000000E+01 0.999999978E-02 0.000000000E+00 0.151999998E+01 0.999999978E-02 0.000000000E+00 0.153999996E+01 0.999999978E-02 0.000000000E+00 0.155999994E+01 0.999999978E-02 0.000000000E+00 0.158000004E+01 0.999999978E-02 0.000000000E+00 0.160000002E+01 0.999999978E-02 0.000000000E+00 0.162000000E+01 0.999999978E-02 0.000000000E+00 0.163999999E+01 0.999999978E-02 0.000000000E+00 0.165999997E+01 0.999999978E-02 0.000000000E+00 0.167999995E+01 0.999999978E-02 0.000000000E+00 0.170000005E+01 0.999999978E-02 0.000000000E+00 0.172000003E+01 0.999999978E-02 0.000000000E+00 0.174000001E+01 0.999999978E-02 0.000000000E+00 0.175999999E+01 0.999999978E-02 0.000000000E+00 0.177999997E+01 0.999999978E-02 0.000000000E+00 0.179999995E+01 0.999999978E-02 0.000000000E+00 0.182000005E+01 0.999999978E-02 0.000000000E+00 0.184000003E+01 0.999999978E-02 0.000000000E+00 0.186000001E+01 0.999999978E-02 0.000000000E+00 0.188000000E+01 0.999999978E-02 0.000000000E+00 0.189999998E+01 0.999999978E-02 0.000000000E+00 0.191999996E+01 0.999999978E-02 0.000000000E+00 0.194000006E+01 0.999999978E-02 0.000000000E+00 0.196000004E+01 0.999999978E-02 0.000000000E+00 0.198000002E+01 0.999999978E-02 0.000000000E+00 0.200000000E+01 0.999999978E-02 0.000000000E+00
[...]
<CellData Scalars="Temperature, U, V">
<DataArray type="Float32" Name="Temp, K"/>
0.000000000E+00 0.000000000E+00 0.000000000E+00 0.000000000E+00 0.000000000E+00 0.000000000E+00 0.000000000E+00 0.143983417E-40 0.194575056E-38 0.890121040E-37 0.167114129E-35 0.144907201E-34 0.628623097E-34 0.145936120E-33 0.194373685E-33 0.160164033E-33 0.877394379E-34 0.338782752E-34 0.963139115E-35 0.208062895E-35 0.349338236E-36 0.463299232E-37 0.491017364E-38 0.419482899E-39 0.290727392E-40 0.181748411E-41 0.700649232E-43 0.000000000E+00 0.000000000E+00 0.000000000E+00 0.000000000E+00 0.000000000E+00 0.000000000E+00 0.000000000E+00 0.000000000E+00 0.000000000E+00 0.000000000E+00 0.238220739E-43 0.980908925E-43 0.236042000E-38 0.276535450E-32 0.229506003E-26 0.102122101E-20 0.178620852E-18 0.272081602E-13 0.205378835E-11 0.741446626E-10 0.152062674E-08 0.175007724E-07 0.243167850E-07 0.289880164E-08 0.190349389E-09 0.748152755E-11 0.170954871E-12 0.182484418E-14 0.127599532E-19 0.641368781E-22 0.147519902E-27 0.182191258E-33 0.159924589E-39 0.770714155E-43 0.154142831E-43 0.000000000E+00 0.000000000E+00 0.000000000E+00 0.000000000E+00 0.000000000E+00 0.000000000E+00 0.000000000E+00 0.000000000E+00 0.000000000E+00 0.000000000E+00 0.700649232E-43 0.160728934E-41 0.250916503E-40 0.360357913E-39 0.421147502E-38 0.397865488E-37 0.301046083E-36 0.180199862E-35 0.838738752E-35 0.296319684E-34 0.768111344E-34 0.139354637E-33 0.166091807E-33 0.120460953E-33 0.492233668E-34 0.105874826E-34 0.112331726E-35 0.543701786E-37 0.106771656E-38 0.705974166E-41 0.000000000E+00 0.000000000E+00 0.000000000E+00 0.000000000E+00 0.000000000E+00 0.000000000E+00 0.000000000E+00 0.000000000E+00
0.000000000E+00 0.000000000E+00 0.000000000E+00 0.000000000E+00 0.000000000E+00 0.700649232E-43 0.524169704E-40 0.123214633E-37 0.946268827E-36 0.292097690E-34 0.412971461E-33 0.290852530E-32 0.108825357E-31 0.229537195E-31 0.290687293E-31 0.236265166E-31 0.131150551E-31 0.523119304E-32 0.155832109E-32 0.356680136E-33 0.640343775E-34 0.915127159E-35 0.105209928E-35 0.980378562E-37 0.744488154E-38 0.529001381E-39 0.350142447E-40 0.216780872E-41 0.700649232E-43 0.000000000E+00 0.000000000E+00 0.000000000E+00 0.000000000E+00 0.000000000E+00 0.000000000E+00 0.000000000E+00 0.126116862E-43 0.546506401E-43 0.382400338E-40 0.466203757E-34 0.439155331E-28 0.288911661E-22 0.102951462E-16 0.144676446E-14 0.146821710E-12 0.770454534E-11 0.240875236E-09 0.461805838E-08 0.516553840E-07 0.714489730E-07 0.855535820E-08 0.581067916E-09 0.246016766E-10 0.658474902E-12 0.106199509E-13 0.937599761E-16 0.577744868E-18 0.165091499E-23 0.256359218E-29 0.279854218E-35 0.237239830E-41 0.560519386E-43 0.980908925E-44 0.000000000E+00 0.000000000E+00 0.000000000E+00 0.000000000E+00 0.000000000E+00 0.000000000E+00 0.000000000E+00 0.700649232E-43 0.188754903E-41 0.307514948E-40 0.458902826E-39 0.640644931E-38 0.840026413E-37 0.900352155E-36 0.784257846E-35 0.550751648E-34 0.308331640E-33 0.135449771E-32 0.456705196E-32 0.114625114E-31 0.205363830E-31 0.248543763E-31 0.190103121E-31 0.857718628E-32 0.214481728E-32 0.280673153E-33 0.180534121E-34 0.525098641E-36 0.606089472E-38 0.225048533E-40 0.000000000E+00 0.000000000E+00 0.000000000E+00 0.000000000E+00 0.000000000E+00 0.000000000E+00 0.000000000E+00
0.000000000E+00 0.000000000E+00 0.000000000E+00 0.000000000E+00 0.700649232E-43 0.832385301E-40 0.342288646E-37 0.439400276E-35 0.220602591E-33 0.500643889E-32 0.562098124E-31 0.333518475E-30 0.110498735E-29 0.215714630E-29 0.262795116E-29 0.211946070E-29 0.119464870E-29 0.492081448E-30 0.153317177E-30 0.370779277E-31 0.709336711E-32 0.108832933E-32 0.135227825E-33 0.136994195E-34 0.113676165E-35 0.883237357E-37 0.640029201E-38 0.430944119E-39 0.269077331E-40 0.153862571E-41 0.700649232E-43 0.000000000E+00 0.000000000E+00 0.000000000E+00 0.000000000E+00 0.420389539E-44 0.546506401E-43 0.483447970E-42 0.586082298E-36 0.523921124E-30 0.314884529E-24 0.939387792E-19 0.484727078E-16 0.585480439E-14 0.438676303E-12 0.197786839E-10 0.569112590E-09 0.104256150E-07 0.114123232E-06 0.156882976E-06 0.188525036E-07 0.131102951E-08 0.582362977E-10 0.170067649E-11 0.321845347E-13 0.377292059E-15 0.271332777E-17 0.463577622E-20 0.159551555E-25 0.274939107E-31 0.320950738E-37 0.868805048E-43 0.280259693E-43 0.000000000E+00 0.000000000E+00 0.000000000E+00 0.000000000E+00 0.000000000E+00 0.700649232E-43 0.139849587E-41 0.243924024E-40 0.383070159E-39 0.560249075E-38 0.764259999E-37 0.976008730E-36 0.117146536E-34 0.115516943E-33 0.931176666E-33 0.609155940E-32 0.320035125E-31 0.133058943E-30 0.428940522E-30 0.104262108E-29 0.184054203E-29 0.224775378E-29 0.179132456E-29 0.875787396E-30 0.248001590E-30 0.386004045E-31 0.313004758E-32 0.123862219E-33 0.218449436E-35 0.148395363E-37 0.308916246E-40 0.000000000E+00 0.000000000E+00 0.000000000E+00 0.000000000E+00 0.000000000E+00 0.000000000E+00
0.000000000E+00 0.000000000E+00 0.000000000E+00 0.000000000E+00 0.652766864E-40 0.472939409E-37 0.101664032E-34 0.826004452E-33 0.297858866E-31 0.525543259E-30 0.486832396E-29 0.250165345E-28 0.748952628E-28 0.137272294E-27 0.162310972E-27 0.130480719E-27 0.747917982E-28 0.317999261E-28 0.103450928E-28 0.263653828E-29 0.535760421E-30 0.879285526E-31 0.117621677E-31 0.129053190E-32 0.116613792E-33 0.988091537E-35 0.781477921E-36 0.574546159E-37 0.391176810E-38 0.245597174E-39 0.141194833E-40 0.769312857E-42 0.000000000E+00 0.000000000E+00 0.000000000E+00 0.966895940E-43 0.350324616E-43 0.645603566E-38 0.560272897E-32 0.337460867E-26 0.104928396E-20 0.585030364E-18 0.152415784E-15 0.159884787E-13 0.103631513E-11 0.427642644E-10 0.116446619E-08 0.206335642E-07 0.221933192E-06 0.303030760E-06 0.365448827E-07 0.258705635E-08 0.118877755E-09 0.367352633E-11 0.761638948E-13 0.102499700E-14 0.850985630E-17 0.288128139E-19 0.460964433E-22 0.154637501E-27 0.269815305E-33 0.329228068E-39 0.504467447E-43 0.742688186E-43 0.000000000E+00 0.000000000E+00 0.000000000E+00 0.769312857E-42 0.134202354E-40 0.227073410E-39 0.353463805E-38 0.509392955E-37 0.682463472E-36 0.853209013E-35 0.999412988E-34 0.110183604E-32 0.100340264E-31 0.751393621E-31 0.459556272E-30 0.227302973E-29 0.896711703E-29 0.276839670E-28 0.651938962E-28 0.113213481E-27 0.138854686E-27 0.114236631E-27 0.596445758E-28 0.187414545E-28 0.337556199E-29 0.332223292E-30 0.169196837E-31 0.415404321E-33 0.445160120E-35 0.176828102E-37 0.203384459E-40 0.000000000E+00 0.000000000E+00 0.000000000E+00 0.000000000E+00 0.000000000E+00
0.000000000E+00 0.000000000E+00 0.000000000E+00 0.267676033E-40 0.346795754E-37 0.125962227E-34 0.165873898E-32 0.946461384E-31 0.260020046E-29 0.371444719E-28 0.292310473E-27 0.132949130E-26 0.365548244E-26 0.636241126E-26 0.735284616E-26 0.591236149E-26 0.345000459E-26 0.151329425E-26 0.513169330E-27 0.137485891E-27 0.295832650E-28 0.517485903E-29 0.742336908E-30 0.878514989E-31 0.860986429E-32 0.792756788E-33 0.682360695E-34 0.546504536E-35 0.405531291E-36 0.277684330E-37 0.174691051E-38 0.100362397E-39 0.524225756E-41 0.210194770E-42 0.882818033E-43 0.756701171E-43 0.627711647E-40 0.491806116E-34 0.273172429E-28 0.804679933E-23 0.699792456E-20 0.217829391E-17 0.394093037E-15 0.365686993E-13 0.215364879E-11 0.835462186E-10 0.218373719E-08 0.376850835E-07 0.399156136E-06 0.541311010E-06 0.655478019E-07 0.470878758E-08 0.222094759E-09 0.715225145E-11 0.157954812E-12 0.233380870E-14 0.219565432E-16 0.107212992E-18 0.307934745E-21 0.320949489E-24 0.115500003E-29 0.222256411E-35 0.307725143E-41 0.868805048E-43 0.868805048E-43 0.210194770E-42 0.531232248E-41 0.981259250E-40 0.165507502E-38 0.256092395E-37 0.365559578E-36 0.483464203E-35 0.594745959E-34 0.683405140E-33 0.736869507E-32 0.749201795E-31 0.632652705E-30 0.441832817E-29 0.253542568E-28 0.118427430E-27 0.444393842E-27 0.131606738E-26 0.300419052E-26 0.512610714E-26 0.629076705E-26 0.530385507E-26 0.292302721E-26 0.100265328E-26 0.204492882E-27 0.237294250E-28 0.149398721E-29 0.481502205E-31 0.734429080E-33 0.475307345E-35 0.108601163E-37 0.663935212E-41 0.000000000E+00 0.000000000E+00 0.000000000E+00 0.000000000E+00
0.000000000E+00 0.000000000E+00 0.580137564E-41 0.139202635E-37 0.870078476E-35 0.187359308E-32 0.169522754E-30 0.722406692E-29 0.157888387E-27 0.188360879E-26 0.128862578E-25 0.527930555E-25 0.135076838E-24 0.225315339E-24 0.255928936E-24 0.206405739E-24 0.122701853E-24 0.554897888E-25 0.195833117E-25 0.550262798E-26 0.125009127E-26 0.232276348E-27 0.355954134E-28 0.452502958E-29 0.478943089E-30 0.477254350E-31 0.445437458E-32 0.387451525E-33 0.312588657E-34 0.232870945E-35 0.159500926E-36 0.999662923E-38 0.569817001E-39 0.292366912E-40 0.137607509E-41 0.781924543E-42 0.422519647E-36 0.202528837E-30 0.519561973E-25 0.608942180E-22 0.278521729E-19 0.630551881E-17 0.901282866E-15 0.753311733E-13 0.412313326E-11 0.152419050E-09 0.385416232E-08 0.650265335E-07 0.678956781E-06 0.914684620E-06 0.111302022E-06 0.810118550E-08 0.390504185E-09 0.129970331E-10 0.301459785E-12 0.478974050E-14 0.501372599E-16 0.310431113E-18 0.122844692E-20 0.243983811E-23 0.193557828E-26 0.815094248E-32 0.185553062E-37 0.107899982E-42 0.150499455E-41 0.307823234E-40 0.575757105E-39 0.974677070E-38 0.150742967E-36 0.214262114E-35 0.281182353E-34 0.342129835E-33 0.387650192E-32 0.410914710E-31 0.409499867E-30 0.385600478E-29 0.303171556E-28 0.198211714E-27 0.107082177E-26 0.473711012E-26 0.169472822E-25 0.482199856E-25 0.106758284E-24 0.178843568E-24 0.218967400E-24 0.188091545E-24 0.108388280E-24 0.400503819E-25 0.908885168E-26 0.121534894E-26 0.917278423E-28 0.371781404E-29 0.759058785E-31 0.714499262E-33 0.274759034E-35 0.350150575E-38 0.111823617E-41 0.000000000E+00 0.000000000E+00 0.000000000E+00
0.000000000E+00 0.629183010E-42 0.306944339E-38 0.340956570E-35 0.122285906E-32 0.177104281E-30 0.117315585E-28 0.391155890E-27 0.702953644E-26 0.717588493E-25 0.434759586E-24 0.162757920E-23 0.391724344E-23 0.630911388E-23 0.707534552E-23 0.573571219E-23 0.347538864E-23 0.161932555E-23 0.593864005E-24 0.174628992E-24 0.417726963E-25 0.821826509E-26 0.134055769E-26 0.182332807E-27 0.207537669E-28 0.222855109E-29 0.224607371E-30 0.211382449E-31 0.184822646E-32 0.149401831E-33 0.111130062E-34 0.757107346E-36 0.469993403E-37 0.264086467E-38 0.133130361E-39 0.410963145E-38 0.165389925E-32 0.361682084E-27 0.456383151E-24 0.270441158E-21 0.859439364E-19 0.156660017E-16 0.189142605E-14 0.144596547E-12 0.745014554E-11 0.264475553E-09 0.649884724E-08 0.107426068E-06 0.110610142E-05 0.148073582E-05 0.181233688E-06 0.133569058E-07 0.656425247E-09 0.224722272E-10 0.543051932E-12 0.916742996E-14 0.105126695E-15 0.772024209E-18 0.380177985E-20 0.108929156E-22 0.171340681E-25 0.130771230E-28 0.660870041E-34 0.190293529E-39 0.146225495E-39 0.277228124E-38 0.473737644E-37 0.736393374E-36 0.104788082E-34 0.137181339E-33 0.165961950E-32 0.186389191E-31 0.195250152E-30 0.191716696E-29 0.177339103E-28 0.155309711E-27 0.114143570E-26 0.701136722E-26 0.357738067E-25 0.150289724E-24 0.513714209E-24 0.140641159E-23 0.302193601E-23 0.496729777E-23 0.605360578E-23 0.527290919E-23 0.315266506E-23 0.124120035E-23 0.308937110E-24 0.467339689E-25 0.412759836E-26 0.203606762E-27 0.531359520E-29 0.682712014E-31 0.390022459E-33 0.864090228E-36 0.580719103E-39 0.700649232E-43 0.000000000E+00 0.000000000E+00
0.700649232E-43 0.361054358E-39 0.754326721E-36 0.465499850E-33 0.109959009E-30 0.114261925E-28 0.582839990E-27 0.157511025E-25 0.238799684E-24 0.212676703E-23 0.115857887E-22 0.401085315E-22 0.916216314E-22 0.143360980E-21 0.159313173E-21 0.130039454E-21 0.803367237E-22 0.385403927E-22 0.146666108E-22 0.450432990E-23 0.113167037E-23 0.235042216E-24 0.406725620E-25 0.589659467E-26 0.718829229E-27 0.828245210E-28 0.897534662E-29 0.910101769E-30 0.859069139E-31 0.750970884E-32 0.604884597E-33 0.446702317E-34 0.300932581E-35 0.183899673E-36 0.101720914E-37 0.155923844E-34 0.280525840E-29 0.364446381E-26 0.231034206E-23 0.920327188E-21 0.227001702E-18 0.351147104E-16 0.372398205E-14 0.263588034E-12 0.128900736E-10 0.441504167E-09 0.105702744E-07 0.171377678E-06 0.174001229E-05 0.231540480E-05 0.285331964E-06 0.212914077E-07 0.106544640E-08 0.374117196E-10 0.937263505E-12 0.166784684E-13 0.206947513E-15 0.173332182E-17 0.100772514E-19 0.372891836E-22 0.874872074E-25 0.133306575E-27 0.103372374E-30 0.652665185E-36 0.110989649E-37 0.192559036E-36 0.302590391E-35 0.433496890E-34 0.569218492E-33 0.688373900E-32 0.770353052E-31 0.801665706E-30 0.779651424E-29 0.712181750E-28 0.614072989E-27 0.502218473E-26 0.346315330E-25 0.200536503E-24 0.969196382E-24 0.387641634E-23 0.126852060E-22 0.334628832E-22 0.698260861E-22 0.112577469E-21 0.136311933E-21 0.119933363E-21 0.739282512E-22 0.307285998E-22 0.828876348E-23 0.139716378E-23 0.141645535E-24 0.829000367E-26 0.267025733E-27 0.445462029E-29 0.354312306E-31 0.119068475E-33 0.143684190E-36 0.456374884E-40 0.000000000E+00 0.000000000E+00
0.206873692E-40 0.909652282E-37 0.102291002E-33 0.407266592E-31 0.676267881E-29 0.532907271E-27 0.217370006E-25 0.489209872E-24 0.638490803E-23 0.504011531E-22 0.250023696E-21 0.808466055E-21 0.176603768E-20 0.269829305E-20 0.298026228E-20 0.245275632E-20 0.154522074E-20 0.762714697E-21 0.300781834E-21 0.962965284E-22 0.253515440E-22 0.554344233E-23 0.101443963E-23 0.156215315E-24 0.203172051E-25 0.250162411E-26 0.290233381E-27 0.315715559E-28 0.320364792E-29 0.301659004E-30 0.262186139E-31 0.209231878E-32 0.152500556E-33 0.100962022E-34 0.828507650E-36 0.259095500E-31 0.324533369E-28 0.209103237E-25 0.884224012E-23 0.265816227E-20 0.539650977E-18 0.731080291E-16 0.698094994E-14 0.461837870E-12 0.215572733E-10 0.714573345E-09 0.166943188E-07 0.265612840E-06 0.265847984E-05 0.351749850E-05 0.436874188E-06 0.330144765E-07 0.168120595E-08 0.604478967E-10 0.156493091E-11 0.291917369E-13 0.388160604E-15 0.361706312E-17 0.240569196E-19 0.108411236E-21 0.337976041E-24 0.774445994E-27 0.121462270E-29 0.103157812E-32 0.670418180E-36 0.105455339E-34 0.152992977E-33 0.202641267E-32 0.246314747E-31 0.276149296E-30 0.287000557E-29 0.277916476E-28 0.252019489E-27 0.215077591E-26 0.173573481E-25 0.133077457E-24 0.864026826E-24 0.473123824E-23 0.217187559E-22 0.828923427E-22 0.260174505E-21 0.662191250E-21 0.134279050E-20 0.212296207E-20 0.255020066E-20 0.225929339E-20 0.142817014E-20 0.621929910E-21 0.179974614E-21 0.333783205E-22 0.382372319E-23 0.260234095E-24 0.100713263E-25 0.210132270E-27 0.220315872E-29 0.105179047E-31 0.196510255E-34 0.115642758E-37 0.132843094E-41 0.000000000E+00
0.544781963E-38 0.124790233E-34 0.887163366E-32 0.243200358E-29 0.301746807E-27 0.187706386E-25 0.630054774E-24 0.120606096E-22 0.137733890E-21 0.976468033E-21 0.445868889E-20 0.135817774E-19 0.285507366E-19 0.427768893E-19 0.470753301E-19 0.391057131E-19 0.251245254E-19 0.127507557E-19 0.520412443E-20 0.173383256E-20 0.477275337E-21 0.109595549E-21 0.211481555E-22 0.344790197E-23 0.476701052E-24 0.624805817E-25 0.772886164E-26 0.898071533E-27 0.975387521E-28 0.985065018E-29 0.920126291E-30 0.790580489E-31 0.621363228E-32 0.444205356E-33 0.679682726E-33 0.375268061E-30 0.213247245E-27 0.899304760E-25 0.284366023E-22 0.686676069E-20 0.118931946E-17 0.144041791E-15 0.125902266E-13 0.784181422E-12 0.350786761E-10 0.112754628E-08 0.257279993E-07 0.401746746E-06 0.396216774E-05 0.521413767E-05 0.653334723E-06 0.500230257E-07 0.259180033E-08 0.953284326E-10 0.254484216E-11 0.495602467E-13 0.700971751E-15 0.714772971E-17 0.532747612E-19 0.282089112E-21 0.109791344E-23 0.337519839E-26 0.812015849E-29 0.153368790E-31 0.611883495E-34 0.462906874E-33 0.622119953E-32 0.764402230E-31 0.863299132E-30 0.900910757E-29 0.873274896E-28 0.790308868E-27 0.671095836E-26 0.537274982E-25 0.407400558E-24 0.293867490E-23 0.180230120E-22 0.935958347E-22 0.409125884E-21 0.149324488E-20 0.450317812E-20 0.110723141E-19 0.218335971E-19 0.338464535E-19 0.402888237E-19 0.358455713E-19 0.231338054E-19 0.104859505E-19 0.322736189E-20 0.651498840E-21 0.832333073E-22 0.648139124E-23 0.295129727E-24 0.748526848E-26 0.994037083E-28 0.634777153E-30 0.171963987E-32 0.159879734E-35 0.346307093E-39 0.000000000E+00
0.767878107E-36 0.108989660E-32 0.522447524E-30 0.105495690E-27 0.102048071E-25 0.516594932E-24 0.145866613E-22 0.241485924E-21 0.244613200E-20 0.157518469E-19 0.668210716E-19 0.193154040E-18 0.392843660E-18 0.579250750E-18 0.636442534E-18 0.534102301E-18 0.349936044E-18 0.182469477E-18 0.769835670E-19 0.266469837E-19 0.765431822E-20 0.184144319E-20 0.373684648E-21 0.643077517E-22 0.942001921E-23 0.130953494E-23 0.172045066E-24 0.212662895E-25 0.246154358E-26 0.265466308E-27 0.265340153E-28 0.244451329E-29 0.206393721E-30 0.158765749E-31 0.103802807E-31 0.298224873E-29 0.104751522E-26 0.323046848E-24 0.811852793E-22 0.163667378E-19 0.247664451E-17 0.272014493E-15 0.220140509E-13 0.129806257E-11 0.558100996E-10 0.174185044E-08 0.388350792E-07 0.595093582E-06 0.578006484E-05 0.756732061E-05 0.957521365E-06 0.743212425E-07 0.391835275E-08 0.147353962E-09 0.405038026E-11 0.821053972E-13 0.122821238E-14 0.135474574E-16 0.111551329E-18 0.677697100E-21 0.316847639E-23 0.122966544E-25 0.406373987E-28 0.124928166E-30 0.163603779E-32 0.165114668E-31 0.206297307E-30 0.236046883E-29 0.248718731E-28 0.242645169E-27 0.220326636E-26 0.187149176E-25 0.149426957E-24 0.112661831E-23 0.805580891E-23 0.548527993E-22 0.318739085E-21 0.157402131E-20 0.656706201E-20 0.229672852E-19 0.666565208E-19 0.158519587E-18 0.304175611E-18 0.462340144E-18 0.544835642E-18 0.485761091E-18 0.318866235E-18 0.149607815E-18 0.486107680E-19 0.105819576E-19 0.149082150E-20 0.131046760E-21 0.690528526E-23 0.208287924E-24 0.339934570E-26 0.278341595E-28 0.102303038E-30 0.140795284E-33 0.491526400E-37 0.000000000E+00
0.684580474E-34 0.641523103E-31 0.223403600E-28 0.347438378E-26 0.270638578E-24 0.114084094E-22 0.275625880E-21 0.400178954E-20 0.363781303E-19 0.214876139E-18 0.853688701E-18 0.235649963E-17 0.465833958E-17 0.678023529E-17 0.745048774E-17 0.632060948E-17 0.422262799E-17 0.226071791E-17 0.984801843E-18 0.353607614E-18 0.105794248E-18 0.266066683E-19 0.566397505E-20 0.102598224E-20 0.158736308E-21 0.233260727E-22 0.324293027E-23 0.424761119E-24 0.521811089E-25 0.598352499E-26 0.637164552E-27 0.626666368E-28 0.566007752E-29 0.466682777E-30 0.109707548E-30 0.172900963E-28 0.428619176E-26 0.102585050E-23 0.212662133E-21 0.367277692E-19 0.493744935E-17 0.496867250E-15 0.375364650E-13 0.210421069E-11 0.871403297E-10 0.264294897E-08 0.575849661E-07 0.865693153E-06 0.827608164E-05 0.107818159E-04 0.137899781E-05 0.108576174E-06 0.582648285E-08 0.223982943E-09 0.633329890E-11 0.133334302E-12 0.210029739E-14 0.248542661E-16 0.223771588E-18 0.153396192E-20 0.839599650E-23 0.396390680E-25 0.169599461E-27 0.743624403E-30 0.414533792E-31 0.484487614E-30 0.564986182E-29 0.604543391E-28 0.596900820E-27 0.546779754E-26 0.467088610E-25 0.373925961E-24 0.281819691E-23 0.200832942E-22 0.135874664E-21 0.876064139E-21 0.483668579E-20 0.227694421E-19 0.908707146E-19 0.305098848E-18 0.853461019E-18 0.196535694E-17 0.367222449E-17 0.547324442E-17 0.638057842E-17 0.569028793E-17 0.378715586E-17 0.183051968E-17 0.623865098E-18 0.145266150E-18 0.223482924E-19 0.219194380E-20 0.131822684E-21 0.464946137E-23 0.911458765E-25 0.926718489E-27 0.442016119E-29 0.836776168E-32 0.441497964E-35 0.287266185E-42