<?xml version="1.0"?>
<VTKFile type="StructuredGrid">
<StructuredGrid WholeExtent="     0   100     0   100     0     0">
<Piece Extent="     0   100     0   100     0     0">
<Points>
<DataArray type="Float32" NumberOfComponents="3"/>
0.000000000E+00 0.000000000E+00 0.000000000E+00 0.199999996E-01 0.000000000E+00 0.000000000E+00 0.399999991E-01 0.000000000E+00 0.000000000E+00 0.599999987E-01 0.000000000E+00 0.000000000E+00 0.799999982E-01 0.000000000E+00 0.000000000E+00 0.100000001E+00 0.000000000E+00 0.000000000E+00 0.119999997E+00 0.000000000E+00 0.000000000E+00 0.140000001E+00 0.000000000E+00 0.000000000E+00 0.159999996E+00 0.000000000E+00 0.000000000E+00 0.180000007E+00 0.000000000E+00 0.000000000E+00 0.200000003E+00 0.000000000E+00 0.000000000E+00 0.219999999E+00 0.000000000E+00 0.000000000E+00 0.239999995E+00 0.000000000E+00 0.000000000E+00 0.259999990E+00 0.000000000E+00 0.000000000E+00 0.280000001E+00 0.000000000E+00 0.000000000E+00 0.300000012E+00 0.000000000E+00 0.000000000E+00 0.319999993E+00 0.000000000E+00 0.000000000E+00 0.340000004E+00 0.000000000E+00 0.000000000E+00 0.360000014E+00 0.000000000E+00 0.000000000E+00 0.379999995E+00 0.000000000E+00 0.000000000E+00 0.400000006E+00 0.000000000E+00 0.000000000E+00 0.419999987E+00 0.000000000E+00 0.000000000E+00 0.439999998E+00 0.000000000E+00 0.000000000E+00 0.460000008E+00 0.000000000E+00 0.000000000E+00 0.479999989E+00 0.000000000E+00 0.000000000E+00 0.500000000E+00 0.000000000E+00 0.000000000E+00 0.519999981E+00 0.000000000E+00 0.000000000E+00 0.540000021E+00 0.000000000E+00 0.000000000E+00 0.560000002E+00 0.000000000E+00 0.000000000E+00 0.579999983E+00 0.000000000E+00 0.000000000E+00 0.600000024E+00 0.000000000E+00 0.000000000E+00 0.620000005E+00 0.000000000E+00 0.000000000E+00 0.639999986E+00 0.000000000E+00 0.000000000E+00 0.660000026E+00 0.000000000E+00 0.000000000E+00 0.680000007E+00 0.000000000E+00 0.000000000E+00 0.699999988E+00 0.000000000E+00 0.000000000E+00 0.720000029E+00 0.000000000E+00 0.000000000E+00 0.740000010E+00 0.000000000E+00 0.000000000E+00 0.759999990E+00 0.000000000E+00 0.000000000E+00 0.779999971E+00 0.000000000E+00 0.000000000E+00 0.800000012E+00 0.000000000E+00 0.000000000E+00 0.819999993E+00 0.000000000E+00 0.000000000E+00 0.839999974E+00 0.000000000E+00 0.000000000E+00 0.860000014E+00 0.000000000E+00 0.000000000E+00 0.879999995E+00 0.000000000E+00 0.000000000E+00 0.899999976E+00 0.000000000E+00 0.000000000E+00 0.920000017E+00 0.000000000E+00 0.000000000E+00 0.939999998E+00 0.000000000E+00 0.000000000E+00 0.959999979E+00 0.000000000E+00 0.000000000E+00 0.980000019E+00 0.000000000E+00 0.000000000E+00 0.100000000E+01 0.000000000E+00 0.000000000E+00 0.101999998E+01 0.000000000E+00 0.000000000E+00 0.103999996E+01 0.000000000E+00 0.000000000E+00 0.105999994E+01 0.000000000E+00 0.000000000E+00 0.108000004E+01 0.000000000E+00 0.000000000E+00 0.110000002E+01 0.000000000E+00 0.000000000E+00 0.112000000E+01 0.000000000E+00 0.000000000E+00 0.113999999E+01 0.000000000E+00 0.000000000E+00 0.115999997E+01 0.000000000E+00 0.000000000E+00 0.117999995E+01 0.000000000E+00 0.000000000E+00 0.120000005E+01 0.000000000E+00 0.000000000E+00 0.122000003E+01 0.000000000E+00 0.000000000E+00 0.124000001E+01 0.000000000E+00 0.000000000E+00 0.125999999E+01 0.000000000E+00 0.000000000E+00 0.127999997E+01 0.000000000E+00 0.000000000E+00 0.129999995E+01 0.000000000E+00 0.000000000E+00 0.132000005E+01 0.000000000E+00 0.000000000E+00 0.134000003E+01 0.000000000E+00 0.000000000E+00 0.136000001E+01 0.000000000E+00 0.000000000E+00 0.138000000E+01 0.000000000E+00 0.000000000E+00 0.139999998E+01 0.000000000E+00 0.000000000E+00 0.141999996E+01 0.000000000E+00 0.000000000E+00 0.144000006E+01 0.000000000E+00 0.000000000E+00 0.146000004E+01 0.000000000E+00 0.000000000E+00 0.148000002E+01 0.000000000E+00 0.000000000E+00 0.150000000E+01 0.000000000E+00 0.000000000E+00 0.151999998E+01 0.000000000E+00 0.000000000E+00 0.153999996E+01 0.000000000E+00 0.000000000E+00 0.155999994E+01 0.000000000E+00 0.000000000E+00 0.158000004E+01 0.000000000E+00 0.000000000E+00 0.160000002E+01 0.000000000E+00 0.000000000E+00 0.162000000E+01 0.000000000E+00 0.000000000E+00 0.163999999E+01 0.000000000E+00 0.000000000E+00 0.165999997E+01 0.000000000E+00 0.000000000E+00 0.167999995E+01 0.000000000E+00 0.000000000E+00 0.170000005E+01 0.000000000E+00 0.000000000E+00 0.172000003E+01 0.000000000E+00 0.000000000E+00 0.174000001E+01 0.000000000E+00 0.000000000E+00 0.175999999E+01 0.000000000E+00 0.000000000E+00 0.177999997E+01 0.000000000E+00 0.000000000E+00 0.179999995E+01 0.000000000E+00 0.000000000E+00 0.182000005E+01 0.000000000E+00 0.000000000E+00 0.184000003E+01 0.000000000E+00 0.000000000E+00 0.186000001E+01 0.000000000E+00 0.000000000E+00 0.188000000E+01 0.000000000E+00 0.000000000E+00 0.189999998E+01 0.000000000E+00 0.000000000E+00 0.191999996E+01 0.000000000E+00 0.000000000E+00 0.194000006E+01 0.000000000E+00 0.000000000E+00 0.196000004E+01 0.000000000E+00 0.000000000E+00 0.198000002E+01 0.000000000E+00 0.000000000E+00 0.200000000E+01 0.000000000E+00 0.000000000E+00
0.000000000E+00 0.999999978E-02 0.000000000E+00 0.199999996E-01 0.999999978E-02 0.000000000E+00 0.399999991E-01 0.999999978E-02 0.000000000E+00 0.599999987E-01 0.999999978E-02 0.000000000E+00 0.799999982E-01 0.999999978E-02 0.000000000E+00 0.100000001E+00 0.999999978E-02 0.000000000E+00 0.119999997E+00 0.999999978E-02 0.000000000E+00 0.140000001E+00 0.999999978E-02 0.000000000E+00 0.159999996E+00 0.999999978E-02 0.000000000E+00 0.180000007E+00 0.999999978E-02 0.000000000E+00 0.200000003E+00 0.999999978E-02 0.000000000E+00 0.219999999E+00 0.999999978E-02 0.000000000E+00 0.239999995E+00 0.999999978E-02 0.000000000E+00 0.259999990E+00 0.999999978E-02 0.000000000E+00 0.280000001E+00 0.999999978E-02 0.000000000E+00 0.300000012E+00 0.999999978E-02 0.000000000E+00 0.319999993E+00 0.999999978E-02 0.000000000E+00 0.340000004E+00 0.999999978E-02 0.000000000E+00 0.360000014E+00 0.999999978E-02 0.000000000E+00 0.379999995E+00 0.999999978E-02 0.000000000E+00 0.400000006E+00 0.999999978E-02 0.000000000E+00 0.419999987E+00 0.999999978E-02 0.000000000E+00 0.439999998E+00 0.999999978E-02 0.000000000E+00 0.460000008E+00 0.999999978E-02 0.000000000E+00 0.479999989E+00 0.999999978E-02 0.000000000E+00 0.500000000E+00 0.999999978E-02 0.000000000E+00 0.519999981E+00 0.999999978E-02 0.000000000E+00 0.540000021E+00 0.999999978E-02 0.000000000E+00 0.560000002E+00 0.999999978E-02 0.000000000E+00 0.579999983E+00 0.999999978E-02 0.000000000E+00 0.600000024E+00 0.999999978E-02 0.000000000E+00 0.620000005E+00 0.999999978E-02 0.000000000E+00 0.639999986E+00 0.999999978E-02 0.000000000E+00 0.660000026E+00 0.999999978E-02 0.000000000E+00 0.680000007E+00 0.999999978E-02 0.000000000E+00 0.699999988E+00 0.999999978E-02 0.000000000E+00 0.720000029E+00 0.999999978E-02 0.000000000E+00 0.740000010E+00 0.999999978E-02 0.000000000E+00 0.759999990E+00 0.999999978E-02 0.000000000E+00 0.779999971E+00 0.999999978E-02 0.000000000E+00 0.800000012E+00 0.999999978E-02 0.000000000E+00 0.819999993E+00 0.999999978E-02 0.000000000E+00 0.839999974E+00 0.999999978E-02 0.000000000E+00 0.860000014E+00 0.999999978E-02 0.000000000E+00 0.879999995E+00 0.999999978E-02 0.000000000E+00 0.899999976E+00 0.999999978E-02 0.000000000E+00 0.920000017E+00 0.999999978E-02 0.000000000E+00 0.939999998E+00 0.999999978E-02 0.000000000E+00 0.959999979E+00 0.999999978E-02 0.000000000E+00 0.980000019E+00 0.999999978E-02 0.000000000E+00 0.100000000E+01 0.999999978E-02 0.000000000E+00 0.101999998E+01 0.999999978E-02 0.000000000E+00 0.103999996E+01 0.999999978E-02 0.000000000E+00 0.105999994E+01 0.999999978E-02 0.000000000E+00 0.108000004E+01 0.999999978E-02 0.000000000E+00 0.110000002E+01 0.999999978E-02 0.000000000E+00 0.112000000E+01 0.999999978E-02 0.000000000E+00 0.113999999E+01 0.999999978E-02 0.000000000E+00 0.115999997E+01 0.999999978E-02 0.000000000E+00 0.117999995E+01 0.999999978E-02 0.000000000E+00 0.120000005E+01 0.999999978E-02 0.000000000E+00 0.122000003E+01 0.999999978E-02 0.000000000E+00 0.124000001E+01 0.999999978E-02 0.000000000E+00 0.125999999E+01 0.999999978E-02 0.000000000E+00 0.127999997E+01 0.999999978E-02 0.000000000E+00 0.129999995E+01 0.999999978E-02 0.000000000E+00 0.132000005E+01 0.999999978E-02 0.000000000E+00 0.134000003E+01 0.999999978E-02 0.000000000E+00 0.136000001E+01 0.999999978E-02 0.000000000E+00 0.138000000E+01 0.999999978E-02 0.000000000E+00 0.139999998E+01 0.999999978E-02 0.000000000E+00 0.141999996E+01 0.999999978E-02 0.000000000E+00 0.144000006E+01 0.999999978E-02 0.000000000E+00 0.146000004E+01 0.999999978E-02 0.000000000E+00 0.148000002E+01 0.999999978E-02 0.000000000E+00 0.150000000E+01 0.999999978E-02 0.000000000E+00 0.151999998E+01 0.999999978E-02 0.000000000E+00 0.153999996E+01 0.999999978E-02 0.000000000E+00 0.155999994E+01 0.999999978E-02 0.000000000E+00 0.158000004E+01 0.999999978E-02 0.000000000E+00 0.160000002E+01 0.999999978E-02 0.000000000E+00 0.162000000E+01 0.999999978E-02 0.000000000E+00 0.163999999E+01 0.999999978E-02 0.000000000E+00 0.165999997E+01 0.999999978E-02 0.000000000E+00 0.167999995E+01 0.999999978E-02 0.000000000E+00 0.170000005E+01 0.999999978E-02 0.000000000E+00 0.172000003E+01 0.999999978E-02 0.000000000E+00 0.174000001E+01 0.999999978E-02 0.000000000E+00 0.175999999E+01 0.999999978E-02 0.000000000E+00 0.177999997E+01 0.999999978E-02 0.000000000E+00 0.179999995E+01 0.999999978E-02 0.000000000E+00 0.182000005E+01 0.999999978E-02 0.000000000E+00 0.184000003E+01 0.999999978E-02 0.000000000E+00 0.186000001E+01 0.999999978E-02 0.000000000E+00 0.188000000E+01 0.999999978E-02 0.000000000E+00 0.189999998E+01 0.999999978E-02 0.000000000E+00 0.191999996E+01 0.999999978E-02 0.000000000E+00 0.194000006E+01 0.999999978E-02 0.000000000E+00 0.196000004E+01 0.999999978E-02 0.000000000E+00 0.198000002E+01 0.999999978E-02 0.000000000E+00 0.200000000E+01 0.999999978E-02 0.000000000E+00
[...]
<CellData Scalars="Temperature, U, V">
<DataArray type="Float32" Name="Temp, K"/>
0.350074952E-04 0.850212018E-04 0.151218672E-03 0.232808059E-03 0.327226619E-03 0.430468208E-03 0.537497224E-03 0.642707455E-03 0.740388583E-03 0.825169147E-03 0.892409531E-03 0.938523270E-03 0.961211335E-03 0.959598401E-03 0.934265088E-03 0.887175032E-03 0.821502355E-03 0.741369731E-03 0.651517068E-03 0.556925021E-03 0.462425640E-03 0.372336857E-03 0.290157797E-03 0.218359492E-03 0.158294177E-03 0.113045549E-03 0.794171428E-04 0.547961281E-04 0.370660637E-04 0.245307274E-04 0.158471503E-04 0.996693961E-05 0.608476375E-05 0.359341311E-05 0.204472099E-05 0.111591601E-05 0.580994993E-06 0.286760269E-06 0.133174566E-06 0.576739616E-07 0.230384494E-07 0.837490433E-08 0.272366685E-08 0.775079834E-09 0.187298010E-09 0.368192803E-10 0.550692998E-11 0.578858359E-12 0.121844392E-10 0.171779726E-10 0.232579689E-12 0.192772274E-11 0.132773332E-10 0.695698776E-10 0.296486669E-09 0.107270592E-08 0.339512307E-08 0.961046709E-08 0.247481751E-07 0.587632769E-07 0.130067903E-06 0.270790480E-06 0.534252422E-06 0.100519412E-05 0.181332416E-05 0.315080479E-05 0.529436284E-05 0.863275545E-05 0.137004990E-04 0.212188061E-04 0.321450207E-04 0.477319118E-04 0.695986237E-04 0.998155447E-04 0.141005512E-03 0.196464927E-03 0.263896480E-03 0.342508312E-03 0.430405635E-03 0.524596195E-03 0.621115789E-03 0.715264410E-03 0.801930844E-03 0.875972968E-03 0.932621188E-03 0.967869593E-03 0.978818280E-03 0.963952800E-03 0.923321757E-03 0.858613988E-03 0.773106643E-03 0.671504182E-03 0.559649721E-03 0.444121979E-03 0.331743882E-03 0.229020952E-03 0.141543846E-03 0.734011992E-04 0.266695770E-04 0.319352544E-09
0.141724609E-03 0.338438520E-03 0.594418729E-03 0.906706846E-03 0.126614654E-02 0.165871135E-02 0.206698268E-02 0.247166399E-02 0.285304291E-02 0.319233234E-02 0.347285322E-02 0.368101080E-02 0.380705530E-02 0.384559878E-02 0.379588292E-02 0.366177922E-02 0.345151755E-02 0.317714596E-02 0.285373279E-02 0.249833893E-02 0.212881924E-02 0.176253845E-02 0.141510612E-02 0.109926553E-02 0.824074552E-03 0.607426919E-03 0.439629192E-03 0.311941520E-03 0.216620552E-03 0.146931037E-03 0.971288464E-04 0.624169770E-04 0.388791705E-04 0.233960855E-04 0.135490209E-04 0.751738298E-05 0.397506938E-05 0.199095166E-05 0.937618665E-06 0.411535922E-06 0.166546357E-06 0.613228934E-07 0.201997281E-07 0.582317572E-08 0.142603618E-08 0.284256285E-09 0.431445817E-10 0.446865765E-11 0.248467844E-10 0.348358391E-10 0.161657992E-11 0.153573959E-10 0.104233309E-09 0.538690537E-09 0.226601538E-08 0.809662914E-08 0.253152486E-07 0.707987766E-07 0.180114327E-06 0.422402650E-06 0.923049129E-06 0.189614673E-05 0.368854217E-05 0.683681583E-05 0.121379426E-04 0.207335961E-04 0.342073254E-04 0.546927295E-04 0.849904245E-04 0.128690153E-03 0.190294464E-03 0.275339669E-03 0.390509085E-03 0.543734815E-03 0.744282559E-03 0.100281765E-02 0.130479527E-02 0.164330157E-02 0.200748281E-02 0.238306890E-02 0.275325589E-02 0.309983548E-02 0.340446364E-02 0.364994747E-02 0.382145913E-02 0.390759809E-02 0.390122295E-02 0.380006223E-02 0.360702304E-02 0.333022815E-02 0.298271421E-02 0.258186390E-02 0.214850297E-02 0.170568109E-02 0.127718411E-02 0.885807211E-03 0.551439356E-03 0.289076095E-03 0.106950683E-03 0.122283084E-08
0.445299374E-03 0.104777783E-02 0.181989698E-02 0.275270408E-02 0.381990289E-02 0.498222047E-02 0.619175332E-02 0.739604374E-02 0.854177773E-02 0.957800448E-02 0.104588717E-01 0.111458497E-01 0.116095021E-01 0.118307825E-01 0.118018612E-01 0.115264980E-01 0.110198949E-01 0.103080077E-01 0.942626968E-02 0.841769297E-02 0.733035663E-02 0.621436769E-02 0.511845946E-02 0.408649445E-02 0.315426872E-02 0.238953414E-02 0.177428511E-02 0.128940016E-02 0.915550394E-03 0.633996387E-03 0.427236315E-03 0.279486383E-03 0.176987262E-03 0.108144370E-03 0.635207543E-04 0.357090430E-04 0.191146210E-04 0.968388395E-05 0.460996762E-05 0.204427033E-05 0.835538344E-06 0.310646499E-06 0.103320986E-06 0.300792884E-07 0.744133333E-08 0.149925650E-08 0.230174713E-09 0.239535457E-10 0.386692171E-10 0.532413315E-10 0.850786889E-11 0.831122324E-10 0.557654534E-09 0.285157786E-08 0.118764696E-07 0.420352748E-07 0.130226894E-06 0.360908814E-06 0.909791481E-06 0.211368001E-05 0.457389524E-05 0.929927228E-05 0.178918381E-04 0.327740017E-04 0.574508522E-04 0.967950982E-04 0.157336894E-03 0.247534394E-03 0.377999007E-03 0.561643334E-03 0.813725055E-03 0.115175592E-02 0.159525604E-02 0.216533639E-02 0.288410764E-02 0.377392047E-02 0.477686059E-02 0.586274732E-02 0.699181948E-02 0.811729766E-02 0.918852538E-02 0.101543320E-01 0.109663159E-01 0.115818353E-01 0.119665321E-01 0.120963696E-01 0.119590312E-01 0.115548717E-01 0.108972341E-01 0.100122700E-01 0.893809088E-02 0.772343948E-02 0.642564055E-02 0.510779954E-02 0.383531093E-02 0.267162384E-02 0.167328445E-02 0.884456385E-03 0.331343617E-03 0.360897934E-08
0.110131397E-02 0.255406811E-02 0.438757893E-02 0.657989876E-02 0.907028280E-02 0.117708277E-01 0.145768793E-01 0.173759423E-01 0.200550929E-01 0.225069914E-01 0.246346612E-01 0.263551865E-01 0.276026018E-01 0.283300336E-01 0.285112932E-01 0.281419232E-01 0.272396561E-01 0.258442163E-01 0.240162928E-01 0.218354650E-01 0.193968825E-01 0.168065447E-01 0.141751999E-01 0.116110928E-01 0.921211299E-02 0.716351438E-02 0.545255421E-02 0.405640295E-02 0.294463639E-02 0.208190735E-02 0.143057632E-02 0.953087001E-03 0.613938610E-03 0.381157879E-03 0.227232405E-03 0.129525346E-03 0.702375255E-04 0.360185222E-04 0.173435528E-04 0.777469631E-05 0.321079006E-05 0.120577783E-05 0.405007825E-06 0.119070350E-06 0.297514067E-07 0.605604056E-08 0.939810119E-09 0.987274221E-10 0.558221178E-10 0.731894753E-10 0.352313317E-10 0.343933049E-09 0.228315766E-08 0.115581038E-07 0.476772186E-07 0.167176367E-06 0.513146460E-06 0.140893371E-05 0.351799122E-05 0.809278663E-05 0.173316657E-04 0.348525718E-04 0.662766543E-04 0.119894306E-03 0.207363089E-03 0.344365486E-03 0.551136793E-03 0.852761790E-03 0.127914234E-02 0.186454586E-02 0.264667720E-02 0.366524165E-02 0.496002706E-02 0.656857667E-02 0.852358062E-02 0.108501669E-01 0.133835860E-01 0.160357971E-01 0.187036376E-01 0.212759227E-01 0.236406866E-01 0.256918650E-01 0.273350365E-01 0.284920409E-01 0.291044451E-01 0.291360691E-01 0.285744220E-01 0.274316724E-01 0.257446822E-01 0.235745795E-01 0.210053194E-01 0.181417018E-01 0.151060987E-01 0.120337317E-01 0.906643737E-02 0.634455821E-02 0.399670843E-02 0.212758663E-02 0.804512179E-03 0.830423197E-08
0.229599420E-02 0.524869328E-02 0.891807862E-02 0.132577997E-01 0.181471463E-01 0.234177299E-01 0.288750045E-01 0.343150608E-01 0.395372622E-01 0.443535075E-01 0.485947877E-01 0.521158017E-01 0.547982119E-01 0.565529615E-01 0.573220998E-01 0.570804067E-01 0.558366776E-01 0.536347739E-01 0.505541041E-01 0.467090309E-01 0.422466882E-01 0.373425931E-01 0.321932696E-01 0.270058252E-01 0.219845120E-01 0.175245740E-01 0.136600547E-01 0.103962030E-01 0.771231204E-02 0.556627847E-02 0.390027324E-02 0.264685485E-02 0.173491030E-02 0.109487621E-02 0.662840670E-03 0.383322593E-03 0.210701430E-03 0.109436209E-03 0.533326674E-04 0.241813996E-04 0.100953102E-04 0.383090082E-05 0.129984721E-05 0.385971845E-06 0.974031096E-07 0.200273522E-07 0.314028892E-08 0.333265970E-09 0.820508522E-10 0.967637012E-10 0.120124022E-09 0.116393428E-08 0.764848629E-08 0.383432948E-07 0.156670040E-06 0.544207410E-06 0.165471931E-05 0.449972777E-05 0.111241525E-04 0.253255639E-04 0.536482148E-04 0.106641462E-03 0.200314069E-03 0.357649347E-03 0.609980547E-03 0.997975585E-03 0.157196342E-02 0.239133439E-02 0.352283474E-02 0.503763324E-02 0.700721890E-02 0.949830469E-02 0.125670964E-01 0.162533969E-01 0.205751248E-01 0.255238824E-01 0.307358596E-01 0.360177308E-01 0.411628261E-01 0.459647179E-01 0.502289459E-01 0.537822992E-01 0.564796291E-01 0.582083687E-01 0.588914193E-01 0.584888570E-01 0.569985174E-01 0.544566773E-01 0.509379283E-01 0.465550460E-01 0.414577648E-01 0.358312167E-01 0.298924502E-01 0.238844268E-01 0.180671886E-01 0.127049740E-01 0.804827642E-02 0.431061722E-02 0.164061901E-02 0.159812128E-07
0.421469146E-02 0.949739479E-02 0.159601551E-01 0.235156398E-01 0.319489986E-01 0.409722738E-01 0.502643064E-01 0.594989583E-01 0.683640018E-01 0.765731558E-01 0.838732570E-01 0.900478438E-01 0.949191302E-01 0.983486995E-01 0.100238211E+00 0.100530475E+00 0.992111862E-01 0.963113010E-01 0.919099972E-01 0.861375257E-01 0.791769549E-01 0.712637305E-01 0.626813024E-01 0.537513345E-01 0.448174886E-01 0.365711860E-01 0.291625317E-01 0.226888862E-01 0.171926748E-01 0.126641374E-01 0.904840045E-02 0.625570305E-02 0.417340174E-02 0.267820363E-02 0.164724013E-02 0.966932683E-03 0.539031636E-03 0.283709873E-03 0.140007425E-03 0.642379819E-04 0.271223125E-04 0.104037190E-04 0.356689247E-05 0.106989683E-05 0.272696752E-06 0.566293537E-07 0.896911434E-08 0.961510538E-09 0.130363983E-09 0.128711028E-09 0.350419554E-09 0.336487571E-08 0.218964864E-07 0.108729658E-06 0.440092663E-06 0.151427093E-05 0.456006410E-05 0.122776519E-04 0.300404427E-04 0.676540440E-04 0.141687357E-03 0.278262276E-03 0.516027503E-03 0.908879272E-03 0.152786239E-02 0.246162643E-02 0.381486467E-02 0.570431212E-02 0.825218111E-02 0.115772197E-01 0.157840569E-01 0.209517181E-01 0.271226168E-01 0.342933573E-01 0.424085483E-01 0.513587445E-01 0.604866631E-01 0.694514215E-01 0.779167265E-01 0.855695456E-01 0.921335593E-01 0.973774344E-01 0.101119101E+00 0.103227243E+00 0.103621200E+00 0.102270626E+00 0.991945490E-01 0.944621786E-01 0.881934687E-01 0.805608183E-01 0.717900693E-01 0.621617623E-01 0.520097911E-01 0.417164750E-01 0.317026190E-01 0.224101953E-01 0.142748198E-01 0.768636493E-02 0.293746265E-02 0.269180376E-07
0.701878686E-02 0.155888554E-01 0.259074923E-01 0.378246382E-01 0.509888530E-01 0.649484545E-01 0.792192742E-01 0.933276638E-01 0.106835820E+00 0.119354792E+00 0.130549490E+00 0.140138641E+00 0.147892430E+00 0.153629288E+00 0.157213211E+00 0.158552334E+00 0.157599837E+00 0.154356763E+00 0.148877233E+00 0.141275793E+00 0.131735221E+00 0.120514035E+00 0.107950479E+00 0.944604054E-01 0.805255771E-01 0.671699345E-01 0.547365285E-01 0.435006358E-01 0.336530283E-01 0.252920110E-01 0.184248034E-01 0.129778087E-01 0.881377887E-02 0.575311622E-02 0.359616615E-02 0.214357674E-02 0.121244008E-02 0.646963308E-03 0.323436398E-03 0.150230771E-03 0.641722727E-04 0.248897450E-04 0.862438446E-05 0.261350669E-05 0.672804958E-06 0.141095256E-06 0.225668035E-07 0.244305109E-08 0.226641123E-09 0.178581677E-09 0.900178820E-09 0.856465121E-08 0.552101902E-07 0.271601976E-06 0.108905726E-05 0.371160718E-05 0.110678520E-04 0.294971414E-04 0.714070411E-04 0.159023111E-03 0.329123810E-03 0.638331869E-03 0.116817583E-02 0.202882802E-02 0.336026354E-02 0.532964710E-02 0.812410936E-02 0.119386306E-01 0.169596132E-01 0.233454369E-01 0.312061980E-01 0.405850969E-01 0.514442138E-01 0.636570081E-01 0.770088509E-01 0.912062824E-01 0.105243862E+00 0.118620224E+00 0.130876988E+00 0.141616687E+00 0.150511354E+00 0.157304093E+00 0.161806315E+00 0.163893148E+00 0.163498685E+00 0.160612941E+00 0.155280039E+00 0.147600055E+00 0.137732193E+00 0.125900924E+00 0.112401940E+00 0.976097807E-01 0.819828063E-01 0.660630390E-01 0.504689850E-01 0.358760506E-01 0.229791291E-01 0.124320704E-01 0.476122787E-02 0.409581240E-07
0.108327018E-01 0.237095710E-01 0.389644466E-01 0.563586317E-01 0.753547177E-01 0.952910483E-01 0.115488365E+00 0.135310277E+00 0.154193252E+00 0.171657056E+00 0.187303782E+00 0.200810298E+00 0.211918414E+00 0.220424876E+00 0.226172820E+00 0.229045972E+00 0.228966519E+00 0.225896746E+00 0.219845206E+00 0.210877523E+00 0.199130774E+00 0.184830844E+00 0.168309256E+00 0.150015965E+00 0.130522281E+00 0.111137569E+00 0.924488381E-01 0.749886036E-01 0.591937453E-01 0.453741848E-01 0.336959064E-01 0.241802279E-01 0.167190172E-01 0.111025563E-01 0.705499435E-02 0.427159714E-02 0.245223171E-02 0.132706109E-02 0.672327529E-03 0.316241203E-03 0.136704548E-03 0.536249499E-04 0.187824371E-04 0.575078775E-05 0.149525602E-05 0.316627535E-06 0.511270883E-07 0.558763658E-08 0.417073015E-09 0.263639444E-09 0.208075157E-08 0.196194474E-07 0.125323623E-06 0.610891107E-06 0.242678334E-05 0.819178513E-05 0.241858434E-04 0.637919657E-04 0.152752327E-03 0.336287194E-03 0.687589752E-03 0.131653331E-02 0.237677083E-02 0.406897347E-02 0.663794484E-02 0.103618745E-01 0.155331325E-01 0.224313959E-01 0.312917084E-01 0.422712639E-01 0.554197952E-01 0.706582218E-01 0.877695903E-01 0.106404290E+00 0.126099527E+00 0.146310940E+00 0.165707201E+00 0.183659852E+00 0.199638054E+00 0.213215917E+00 0.224068284E+00 0.231959984E+00 0.236732632E+00 0.238292471E+00 0.236600816E+00 0.231669396E+00 0.223558590E+00 0.212382555E+00 0.198316991E+00 0.181612626E+00 0.162609294E+00 0.141754538E+00 0.119619615E+00 0.969102010E-01 0.744678229E-01 0.532534085E-01 0.343021490E-01 0.186385382E-01 0.714206183E-02 0.576076253E-07
0.157405157E-01 0.339419805E-01 0.551526546E-01 0.790170506E-01 0.104757771E+00 0.131458506E+00 0.158221364E+00 0.184245378E+00 0.208857045E+00 0.231512696E+00 0.251786441E+00 0.269350678E+00 0.283955842E+00 0.295410901E+00 0.303567141E+00 0.308306426E+00 0.309534103E+00 0.307177722E+00 0.301191896E+00 0.291570246E+00 0.278364331E+00 0.261709571E+00 0.241856337E+00 0.219201788E+00 0.194316238E+00 0.168658465E+00 0.143053994E+00 0.118330516E+00 0.952485725E-01 0.744360462E-01 0.563369431E-01 0.411828198E-01 0.289908294E-01 0.195878707E-01 0.126552293E-01 0.778484065E-02 0.453705853E-02 0.249070325E-02 0.127908366E-02 0.609400158E-03 0.266641640E-03 0.105800827E-03 0.374622323E-04 0.115894236E-04 0.304334594E-05 0.650628522E-06 0.106041050E-06 0.116954721E-07 0.776791631E-09 0.412334222E-09 0.439949899E-08 0.411237657E-07 0.260377817E-06 0.125786300E-05 0.495096174E-05 0.165530000E-04 0.483852091E-04 0.126284853E-03 0.299060077E-03 0.650717935E-03 0.131410279E-02 0.248335721E-02 0.442161364E-02 0.745997811E-02 0.119844722E-01 0.184092410E-01 0.271370038E-01 0.385104083E-01 0.527609177E-01 0.699630082E-01 0.900020823E-01 0.112562209E+00 0.137137100E+00 0.163063675E+00 0.189573303E+00 0.215853110E+00 0.240358219E+00 0.262412906E+00 0.281497121E+00 0.297232956E+00 0.309361398E+00 0.317715883E+00 0.322198659E+00 0.322761685E+00 0.319394231E+00 0.312118202E+00 0.300988227E+00 0.286101997E+00 0.267614514E+00 0.245760754E+00 0.220881626E+00 0.193457127E+00 0.164139599E+00 0.133782551E+00 0.103459403E+00 0.744590387E-01 0.482395142E-01 0.263184011E-01 0.100779990E-01 0.761894583E-07
0.217890125E-01 0.462771058E-01 0.743415505E-01 0.105481997E+00 0.138625458E+00 0.172562018E+00 0.206164166E+00 0.238480553E+00 0.268759787E+00 0.296437383E+00 0.321106434E+00 0.342482090E+00 0.360368013E+00 0.374625862E+00 0.385150701E+00 0.391852528E+00 0.394643635E+00 0.393432915E+00 0.388127387E+00 0.378642350E+00 0.364921063E+00 0.346965700E+00 0.324878752E+00 0.298913896E+00 0.269529372E+00 0.238134027E+00 0.205717146E+00 0.173372999E+00 0.142210200E+00 0.113249667E+00 0.873271599E-01 0.650176331E-01 0.465947129E-01 0.320317857E-01 0.210427996E-01 0.131528182E-01 0.778319454E-02 0.433500390E-02 0.225693220E-02 0.108929875E-02 0.482482224E-03 0.193665372E-03 0.693247639E-04 0.216689132E-04 0.574627757E-05 0.124005896E-05 0.203943230E-06 0.226917649E-07 0.141847023E-08 0.667892353E-09 0.861861071E-08 0.798924873E-07 0.501547618E-06 0.240176473E-05 0.936765446E-05 0.310228643E-04 0.897778300E-04 0.231855680E-03 0.542961177E-03 0.116750842E-02 0.232836255E-02 0.434210245E-02 0.762361940E-02 0.126740998E-01 0.200485773E-01 0.303029642E-01 0.439254604E-01 0.612615570E-01 0.824454054E-01 0.107350312E+00 0.135569364E+00 0.166431129E+00 0.199049741E+00 0.232401133E+00 0.265413165E+00 0.297054827E+00 0.325752765E+00 0.350893617E+00 0.372064143E+00 0.389010370E+00 0.401593208E+00 0.409748137E+00 0.413453043E+00 0.412705779E+00 0.407511503E+00 0.397879958E+00 0.383829057E+00 0.365400910E+00 0.342683554E+00 0.315844506E+00 0.285169393E+00 0.251114458E+00 0.214362130E+00 0.175876796E+00 0.136952192E+00 0.992320180E-01 0.646746159E-01 0.354238451E-01 0.135429883E-01 0.959852144E-07
0.289938115E-01 0.606334209E-01 0.962875187E-01 0.135285363E+00 0.176204473E+00 0.217512533E+00 0.257857323E+00 0.296168774E+00 0.331665218E+00 0.363815725E+00 0.392286837E+00 0.416887313E+00 0.437519699E+00 0.454138875E+00 0.466719031E+00 0.475229353E+00 0.479616374E+00 0.479793280E+00 0.475637794E+00 0.466997385E+00 0.453705877E+00 0.435613841E+00 0.412634254E+00 0.384805858E+00 0.352370679E+00 0.316470444E+00 0.278125316E+00 0.238595441E+00 0.199289009E+00 0.161634177E+00 0.126933828E+00 0.962284654E-01 0.701940209E-01 0.490939133E-01 0.327929594E-01 0.208276641E-01 0.125145204E-01 0.707221683E-02 0.373303634E-02 0.182531017E-02 0.818450004E-03 0.332331576E-03 0.120260403E-03 0.379764497E-04 0.101686201E-04 0.221463324E-05 0.367428470E-06 0.412278354E-07 0.249922993E-08 0.109137632E-08 0.158028097E-07 0.145327206E-06 0.904865260E-06 0.429628426E-05 0.166077061E-04 0.544842223E-04 0.156110982E-03 0.398931123E-03 0.923812913E-03 0.196296582E-02 0.386572396E-02 0.711362064E-02 0.123152602E-01 0.201733299E-01 0.314210318E-01 0.467322432E-01 0.666176453E-01 0.913244858E-01 0.120760456E+00 0.154458433E+00 0.191592410E+00 0.231043950E+00 0.271507770E+00 0.311618268E+00 0.350073993E+00 0.385740459E+00 0.417233795E+00 0.444115728E+00 0.466164768E+00 0.483307421E+00 0.495556325E+00 0.502961040E+00 0.505572796E+00 0.503422439E+00 0.496509820E+00 0.484805256E+00 0.468256027E+00 0.446808487E+00 0.420436263E+00 0.389183730E+00 0.353219271E+00 0.312907785E+00 0.268894792E+00 0.222197816E+00 0.174296007E+00 0.127193689E+00 0.834145397E-01 0.458659939E-01 0.174955782E-01 0.116332963E-06
0.373462178E-01 0.768762156E-01 0.120671906E+00 0.167870954E+00 0.216652602E+00 0.265147150E+00 0.311801404E+00 0.355475992E+00 0.395419896E+00 0.431197554E+00 0.462605745E+00 0.489596039E+00 0.512211084E+00 0.530532956E+00 0.544644535E+00 0.554600120E+00 0.560404778E+00 0.562000573E+00 0.559258997E+00 0.551981986E+00 0.539911687E+00 0.522754729E+00 0.500224590E+00 0.472108424E+00 0.438358516E+00 0.399662495E+00 0.356908560E+00 0.311366588E+00 0.264623404E+00 0.218452930E+00 0.174635738E+00 0.134758428E+00 0.100031987E+00 0.711668953E-01 0.483298339E-01 0.311882459E-01 0.190274864E-01 0.109098824E-01 0.583838904E-02 0.289200502E-02 0.131266599E-02 0.539151777E-03 0.197211120E-03 0.629077185E-04 0.170046387E-04 0.373667558E-05 0.625212294E-06 0.707198566E-07 0.422401003E-08 0.176345738E-08 0.273435283E-07 0.249564266E-06 0.154167708E-05 0.725951486E-05 0.278182488E-04 0.904208355E-04 0.256540457E-03 0.648739398E-03 0.148564042E-02 0.311956019E-02 0.606662547E-02 0.110160001E-01 0.188051723E-01 0.303532351E-01 0.465534292E-01 0.681377575E-01 0.955371633E-01 0.128765643E+00 0.167356163E+00 0.210365728E+00 0.256453067E+00 0.304015338E+00 0.351358354E+00 0.396867186E+00 0.439147621E+00 0.477117777E+00 0.509786665E+00 0.536982059E+00 0.558729291E+00 0.575161576E+00 0.586448610E+00 0.592745423E+00 0.594160140E+00 0.590735853E+00 0.582443893E+00 0.569188535E+00 0.550817013E+00 0.527144909E+00 0.497988909E+00 0.463218927E+00 0.422823250E+00 0.377003163E+00 0.326288372E+00 0.271672755E+00 0.214761481E+00 0.157899335E+00 0.104221150E+00 0.575317740E-01 0.218862966E-01 0.136678224E-06