<?xml version="1.0"?>
<VTKFile type="StructuredGrid">
<StructuredGrid WholeExtent="     0   100     0   100     0     0">
<Piece Extent="     0   100     0   100     0     0">
<Points>
<DataArray type="Float32" NumberOfComponents="3"/>
0.000000000E+00 0.000000000E+00 0.000000000E+00 0.199999996E-01 0.000000000E+00 0.000000000E+00 0.399999991E-01 0.000000000E+00 0.000000000E+00 0.599999987E-01 0.000000000E+00 0.000000000E+00 0.799999982E-01 0.000000000E+00 0.000000000E+00 0.100000001E+00 0.000000000E+00 0.000000000E+00 0.119999997E+00 0.000000000E+00 0.000000000E+00 0.140000001E+00 0.000000000E+00 0.000000000E+00 0.159999996E+00 0.000000000E+00 0.000000000E+00 0.180000007E+00 0.000000000E+00 0.000000000E+00 0.200000003E+00 0.000000000E+00 0.000000000E+00 0.219999999E+00 0.000000000E+00 0.000000000E+00 0.239999995E+00 0.000000000E+00 0.000000000E+00 0.259999990E+00 0.000000000E+00 0.000000000E+00 0.280000001E+00 0.000000000E+00 0.000000000E+00 0.300000012E+00 0.000000000E+00 0.000000000E+00 0.319999993E+00 0.000000000E+00 0.000000000E+00 0.340000004E+00 0.000000000E+00 0.000000000E+00 0.360000014E+00 0.000000000E+00 0.000000000E+00 0.379999995E+00 0.000000000E+00 0.000000000E+00 0.400000006E+00 0.000000000E+00 0.000000000E+00 0.419999987E+00 0.000000000E+00 0.000000000E+00 0.439999998E+00 0.000000000E+00 0.000000000E+00 0.460000008E+00 0.000000000E+00 0.000000000E+00 0.479999989E+00 0.000000000E+00 0.000000000E+00 0.500000000E+00 0.000000000E+00 0.000000000E+00 0.519999981E+00 0.000000000E+00 0.000000000E+00 0.540000021E+00 0.000000000E+00 0.000000000E+00 0.560000002E+00 0.000000000E+00 0.000000000E+00 0.579999983E+00 0.000000000E+00 0.000000000E+00 0.600000024E+00 0.000000000E+00 0.000000000E+00 0.620000005E+00 0.000000000E+00 0.000000000E+00 0.639999986E+00 0.000000000E+00 0.000000000E+00 0.660000026E+00 0.000000000E+00 0.000000000E+00 0.680000007E+00 0.000000000E+00 0.000000000E+00 0.699999988E+00 0.000000000E+00 0.000000000E+00 0.720000029E+00 0.000000000E+00 0.000000000E+00 0.740000010E+00 0.000000000E+00 0.000000000E+00 0.759999990E+00 0.000000000E+00 0.000000000E+00 0.779999971E+00 0.000000000E+00 0.000000000E+00 0.800000012E+00 0.000000000E+00 0.000000000E+00 0.819999993E+00 0.000000000E+00 0.000000000E+00 0.839999974E+00 0.000000000E+00 0.000000000E+00 0.860000014E+00 0.000000000E+00 0.000000000E+00 0.879999995E+00 0.000000000E+00 0.000000000E+00 0.899999976E+00 0.000000000E+00 0.000000000E+00 0.920000017E+00 0.000000000E+00 0.000000000E+00 0.939999998E+00 0.000000000E+00 0.000000000E+00 0.959999979E+00 0.000000000E+00 0.000000000E+00 0.980000019E+00 0.000000000E+00 0.000000000E+00 0.100000000E+01 0.000000000E+00 0.000000000E+00 0.101999998E+01 0.000000000E+00 0.000000000E+00 0.103999996E+01 0.000000000E+00 0.000000000E+00 0.105999994E+01 0.000000000E+00 0.000000000E+00 0.108000004E+01 0.000000000E+00 0.000000000E+00 0.110000002E+01 0.000000000E+00 0.000000000E+00 0.112000000E+01 0.000000000E+00 0.000000000E+00 0.113999999E+01 0.000000000E+00 0.000000000E+00 0.115999997E+01 0.000000000E+00 0.000000000E+00 0.117999995E+01 0.000000000E+00 0.000000000E+00 0.120000005E+01 0.000000000E+00 0.000000000E+00 0.122000003E+01 0.000000000E+00 0.000000000E+00 0.124000001E+01 0.000000000E+00 0.000000000E+00 0.125999999E+01 0.000000000E+00 0.000000000E+00 0.127999997E+01 0.000000000E+00 0.000000000E+00 0.129999995E+01 0.000000000E+00 0.000000000E+00 0.132000005E+01 0.000000000E+00 0.000000000E+00 0.134000003E+01 0.000000000E+00 0.000000000E+00 0.136000001E+01 0.000000000E+00 0.000000000E+00 0.138000000E+01 0.000000000E+00 0.000000000E+00 0.139999998E+01 0.000000000E+00 0.000000000E+00 0.141999996E+01 0.000000000E+00 0.000000000E+00 0.144000006E+01 0.000000000E+00 0.000000000E+00 0.146000004E+01 0.000000000E+00 0.000000000E+00 0.148000002E+01 0.000000000E+00 0.000000000E+00 0.150000000E+01 0.000000000E+00 0.000000000E+00 0.151999998E+01 0.000000000E+00 0.000000000E+00 0.153999996E+01 0.000000000E+00 0.000000000E+00 0.155999994E+01 0.000000000E+00 0.000000000E+00 0.158000004E+01 0.000000000E+00 0.000000000E+00 0.160000002E+01 0.000000000E+00 0.000000000E+00 0.162000000E+01 0.000000000E+00 0.000000000E+00 0.163999999E+01 0.000000000E+00 0.000000000E+00 0.165999997E+01 0.000000000E+00 0.000000000E+00 0.167999995E+01 0.000000000E+00 0.000000000E+00 0.170000005E+01 0.000000000E+00 0.000000000E+00 0.172000003E+01 0.000000000E+00 0.000000000E+00 0.174000001E+01 0.000000000E+00 0.000000000E+00 0.175999999E+01 0.000000000E+00 0.000000000E+00 0.177999997E+01 0.000000000E+00 0.000000000E+00 0.179999995E+01 0.000000000E+00 0.000000000E+00 0.182000005E+01 0.000000000E+00 0.000000000E+00 0.184000003E+01 0.000000000E+00 0.000000000E+00 0.186000001E+01 0.000000000E+00 0.000000000E+00 0.188000000E+01 0.000000000E+00 0.000000000E+00 0.189999998E+01 0.000000000E+00 0.000000000E+00 0.191999996E+01 0.000000000E+00 0.000000000E+00 0.194000006E+01 0.000000000E+00 0.000000000E+00 0.196000004E+01 0.000000000E+00 0.000000000E+00 0.198000002E+01 0.000000000E+00 0.000000000E+00 0.200000000E+01 0.000000000E+00 0.000000000E+00
0.000000000E+00 0.999999978E-02 0.000000000E+00 0.199999996E-01 0.999999978E-02 0.000000000E+00 0.399999991E-01 0.999999978E-02 0.000000000E+00 0.599999987E-01 0.999999978E-02 0.000000000E+00 0.799999982E-01 0.999999978E-02 0.000000000E+00 0.100000001E+00 0.999999978E-02 0.000000000E+00 0.119999997E+00 0.999999978E-02 0.000000000E+00 0.140000001E+00 0.999999978E-02 0.000000000E+00 0.159999996E+00 0.999999978E-02 0.000000000E+00 0.180000007E+00 0.999999978E-02 0.000000000E+00 0.200000003E+00 0.999999978E-02 0.000000000E+00 0.219999999E+00 0.999999978E-02 0.000000000E+00 0.239999995E+00 0.999999978E-02 0.000000000E+00 0.259999990E+00 0.999999978E-02 0.000000000E+00 0.280000001E+00 0.999999978E-02 0.000000000E+00 0.300000012E+00 0.999999978E-02 0.000000000E+00 0.319999993E+00 0.999999978E-02 0.000000000E+00 0.340000004E+00 0.999999978E-02 0.000000000E+00 0.360000014E+00 0.999999978E-02 0.000000000E+00 0.379999995E+00 0.999999978E-02 0.000000000E+00 0.400000006E+00 0.999999978E-02 0.000000000E+00 0.419999987E+00 0.999999978E-02 0.000000000E+00 0.439999998E+00 0.999999978E-02 0.000000000E+00 0.460000008E+00 0.999999978E-02 0.000000000E+00 0.479999989E+00 0.999999978E-02 0.000000000E+00 0.500000000E+00 0.999999978E-02 0.000000000E+00 0.519999981E+00 0.999999978E-02 0.000000000E+00 0.540000021E+00 0.999999978E-02 0.000000000E+00 0.560000002E+00 0.999999978E-02 0.000000000E+00 0.579999983E+00 0.999999978E-02 0.000000000E+00 0.600000024E+00 0.999999978E-02 0.000000000E+00 0.620000005E+00 0.999999978E-02 0.000000000E+00 0.639999986E+00 0.999999978E-02 0.000000000E+00 0.660000026E+00 0.999999978E-02 0.000000000E+00 0.680000007E+00 0.999999978E-02 0.000000000E+00 0.699999988E+00 0.999999978E-02 0.000000000E+00 0.720000029E+00 0.999999978E-02 0.000000000E+00 0.740000010E+00 0.999999978E-02 0.000000000E+00 0.759999990E+00 0.999999978E-02 0.000000000E+00 0.779999971E+00 0.999999978E-02 0.000000000E+00 0.800000012E+00 0.999999978E-02 0.000000000E+00 0.819999993E+00 0.999999978E-02 0.000000000E+00 0.839999974E+00 0.999999978E-02 0.000000000E+00 0.860000014E+00 0.999999978E-02 0.000000000E+00 0.879999995E+00 0.999999978E-02 0.000000000E+00 0.899999976E+00 0.999999978E-02 0.000000000E+00 0.920000017E+00 0.999999978E-02 0.000000000E+00 0.939999998E+00 0.999999978E-02 0.000000000E+00 0.959999979E+00 0.999999978E-02 0.000000000E+00 0.980000019E+00 0.999999978E-02 0.000000000E+00 0.100000000E+01 0.999999978E-02 0.000000000E+00 0.101999998E+01 0.999999978E-02 0.000000000E+00 0.103999996E+01 0.999999978E-02 0.000000000E+00 0.105999994E+01 0.999999978E-02 0.000000000E+00 0.108000004E+01 0.999999978E-02 0.000000000E+00 0.110000002E+01 0.999999978E-02 0.000000000E+00 0.112000000E+01 0.999999978E-02 0.000000000E+00 0.113999999E+01 0.999999978E-02 0.000000000E+00 0.115999997E+01 0.999999978E-02 0.000000000E+00 0.117999995E+01 0.999999978E-02 0.000000000E+00 0.120000005E+01 0.999999978E-02 0.000000000E+00 0.122000003E+01 0.999999978E-02 0.000000000E+00 0.124000001E+01 0.999999978E-02 0.000000000E+00 0.125999999E+01 0.999999978E-02 0.000000000E+00 0.127999997E+01 0.999999978E-02 0.000000000E+00 0.129999995E+01 0.999999978E-02 0.000000000E+00 0.132000005E+01 0.999999978E-02 0.000000000E+00 0.134000003E+01 0.999999978E-02 0.000000000E+00 0.136000001E+01 0.999999978E-02 0.000000000E+00 0.138000000E+01 0.999999978E-02 0.000000000E+00 0.139999998E+01 0.999999978E-02 0.000000000E+00 0.141999996E+01 0.999999978E-02 0.000000000E+00 0.144000006E+01 0.999999978E-02 0.000000000E+00 0.146000004E+01 0.999999978E-02 0.000000000E+00 0.148000002E+01 0.999999978E-02 0.000000000E+00 0.150000000E+01 0.999999978E-02 0.000000000E+00 0.151999998E+01 0.999999978E-02 0.000000000E+00 0.153999996E+01 0.999999978E-02 0.000000000E+00 0.155999994E+01 0.999999978E-02 0.000000000E+00 0.158000004E+01 0.999999978E-02 0.000000000E+00 0.160000002E+01 0.999999978E-02 0.000000000E+00 0.162000000E+01 0.999999978E-02 0.000000000E+00 0.163999999E+01 0.999999978E-02 0.000000000E+00 0.165999997E+01 0.999999978E-02 0.000000000E+00 0.167999995E+01 0.999999978E-02 0.000000000E+00 0.170000005E+01 0.999999978E-02 0.000000000E+00 0.172000003E+01 0.999999978E-02 0.000000000E+00 0.174000001E+01 0.999999978E-02 0.000000000E+00 0.175999999E+01 0.999999978E-02 0.000000000E+00 0.177999997E+01 0.999999978E-02 0.000000000E+00 0.179999995E+01 0.999999978E-02 0.000000000E+00 0.182000005E+01 0.999999978E-02 0.000000000E+00 0.184000003E+01 0.999999978E-02 0.000000000E+00 0.186000001E+01 0.999999978E-02 0.000000000E+00 0.188000000E+01 0.999999978E-02 0.000000000E+00 0.189999998E+01 0.999999978E-02 0.000000000E+00 0.191999996E+01 0.999999978E-02 0.000000000E+00 0.194000006E+01 0.999999978E-02 0.000000000E+00 0.196000004E+01 0.999999978E-02 0.000000000E+00 0.198000002E+01 0.999999978E-02 0.000000000E+00 0.200000000E+01 0.999999978E-02 0.000000000E+00
[...]
<CellData Scalars="Temperature, U, V">
<DataArray type="Float32" Name="Temp, K"/>
0.292901241E-04 0.718165393E-04 0.128777581E-03 0.199597271E-03 0.282082096E-03 0.372704148E-03 0.466971425E-03 0.559845881E-03 0.646172790E-03 0.721091754E-03 0.780403032E-03 0.820866495E-03 0.840419729E-03 0.838303822E-03 0.815089385E-03 0.772604777E-03 0.713769870E-03 0.642348838E-03 0.562637986E-03 0.479117298E-03 0.396092713E-03 0.317366648E-03 0.245970528E-03 0.183988421E-03 0.132492816E-03 0.939741440E-04 0.655552285E-04 0.449038016E-04 0.301469299E-04 0.197967620E-04 0.126860405E-04 0.791209277E-05 0.478829043E-05 0.280215727E-05 0.157941895E-05 0.853473466E-06 0.439775476E-06 0.214718696E-06 0.985925652E-07 0.421931752E-07 0.166460428E-07 0.597280092E-08 0.191614369E-08 0.537556444E-09 0.127978225E-09 0.247697644E-10 0.364517748E-11 0.387297941E-12 0.129839438E-10 0.183201197E-10 0.169739372E-12 0.126061683E-11 0.882339774E-11 0.469533162E-10 0.203093375E-09 0.745326190E-09 0.239128695E-08 0.685763846E-08 0.178805148E-07 0.429648388E-07 0.961883302E-07 0.202449911E-06 0.403609675E-06 0.767020708E-06 0.139700478E-05 0.244987723E-05 0.415320528E-05 0.683004646E-05 0.109290731E-04 0.170615695E-04 0.260465877E-04 0.389656780E-04 0.572290228E-04 0.826552496E-04 0.117567470E-03 0.164909157E-03 0.222869494E-03 0.290870055E-03 0.367346773E-03 0.449737592E-03 0.534581137E-03 0.617719314E-03 0.694586255E-03 0.760552532E-03 0.811296224E-03 0.843165733E-03 0.853500387E-03 0.840892899E-03 0.805358286E-03 0.748406863E-03 0.672997092E-03 0.583383837E-03 0.484846852E-03 0.383313774E-03 0.284900365E-03 0.195389977E-03 0.119684497E-03 0.612735748E-04 0.217851775E-04 0.255672428E-09
0.120738106E-03 0.291004544E-03 0.515202642E-03 0.791100319E-03 0.111069949E-02 0.146141183E-02 0.182740495E-02 0.219100784E-02 0.253408402E-02 0.283930334E-02 0.309126754E-02 0.327744544E-02 0.338889845E-02 0.342076784E-02 0.337252580E-02 0.324795698E-02 0.305488217E-02 0.280462159E-02 0.251121493E-02 0.219042809E-02 0.185861369E-02 0.153150666E-02 0.122306030E-02 0.944453059E-03 0.703389291E-03 0.514975749E-03 0.370124733E-03 0.260736677E-03 0.179715993E-03 0.120959914E-03 0.793215077E-04 0.505504249E-04 0.312157099E-04 0.186156340E-04 0.106795806E-04 0.586741135E-05 0.307091886E-05 0.152169093E-05 0.708631092E-06 0.307400398E-06 0.122884614E-06 0.446686670E-07 0.145173216E-07 0.412663415E-08 0.995840299E-09 0.195486197E-09 0.292012560E-10 0.299540145E-11 0.264164454E-10 0.371404123E-10 0.110303162E-11 0.102705873E-10 0.708220219E-10 0.371634334E-09 0.158629709E-08 0.574786396E-08 0.182140631E-07 0.515968352E-07 0.132885688E-06 0.315326020E-06 0.696855977E-06 0.144700050E-05 0.284403700E-05 0.532396371E-05 0.954235111E-05 0.164495359E-04 0.273789738E-04 0.441476222E-04 0.691668101E-04 0.105560794E-03 0.157290153E-03 0.229275916E-03 0.327521004E-03 0.459224015E-03 0.632881478E-03 0.858375512E-03 0.112359680E-02 0.142280816E-02 0.174661237E-02 0.208237418E-02 0.241498719E-02 0.272789784E-02 0.300427922E-02 0.322823832E-02 0.338597526E-02 0.346680265E-02 0.346395257E-02 0.337517471E-02 0.320303976E-02 0.295498059E-02 0.264300266E-02 0.228313589E-02 0.189456332E-02 0.149844529E-02 0.111650012E-02 0.769361737E-03 0.474782893E-03 0.245799689E-03 0.890459414E-04 0.999353600E-09
0.384960498E-03 0.914034841E-03 0.160011277E-02 0.243618456E-02 0.339887617E-02 0.445238454E-02 0.555249769E-02 0.665043015E-02 0.769635383E-02 0.864250492E-02 0.944584515E-02 0.100702392E-01 0.104881879E-01 0.106820911E-01 0.106450459E-01 0.103811715E-01 0.990542863E-02 0.924287550E-02 0.842736196E-02 0.749961706E-02 0.650475034E-02 0.548930932E-02 0.449801423E-02 0.357050216E-02 0.273842644E-02 0.206084340E-02 0.151979376E-02 0.109666167E-02 0.772998552E-03 0.531220750E-03 0.355157361E-03 0.230431644E-03 0.144679609E-03 0.876191043E-04 0.509888669E-04 0.283875288E-04 0.150424430E-04 0.754063558E-05 0.355019961E-05 0.155621422E-05 0.628408372E-06 0.230698333E-06 0.757211609E-07 0.217413731E-07 0.530144240E-08 0.105213493E-08 0.159012609E-09 0.163103073E-10 0.407732181E-10 0.566582788E-10 0.577357086E-11 0.567440123E-10 0.386719406E-09 0.200735473E-08 0.848143777E-08 0.304354266E-07 0.955425534E-07 0.268151382E-06 0.684189558E-06 0.160805882E-05 0.351855283E-05 0.723003495E-05 0.140530183E-04 0.259949084E-04 0.459971852E-04 0.781999333E-04 0.128219559E-03 0.203419157E-03 0.313148543E-03 0.468924845E-03 0.684526574E-03 0.975972565E-03 0.136136031E-02 0.186054746E-02 0.249466440E-02 0.328546064E-02 0.418297574E-02 0.516091613E-02 0.618372392E-02 0.720884046E-02 0.818957947E-02 0.907830149E-02 0.982955843E-02 0.104029998E-01 0.107658757E-01 0.108950585E-01 0.107784607E-01 0.104159964E-01 0.981990807E-02 0.901459903E-02 0.803578459E-02 0.692917081E-02 0.574841071E-02 0.455234712E-02 0.340159214E-02 0.235442375E-02 0.146204745E-02 0.763440854E-03 0.280228385E-03 0.300008884E-08
0.964642852E-03 0.225708052E-02 0.390759390E-02 0.589832058E-02 0.817434676E-02 0.106543694E-01 0.132404333E-01 0.158264283E-01 0.183052737E-01 0.205748230E-01 0.225426145E-01 0.241295975E-01 0.252730381E-01 0.259287059E-01 0.260724518E-01 0.257012211E-01 0.248334277E-01 0.235086456E-01 0.217864048E-01 0.197439566E-01 0.174727757E-01 0.150737558E-01 0.126511091E-01 0.103053050E-01 0.812563207E-02 0.627808180E-02 0.474671461E-02 0.350680482E-02 0.252731680E-02 0.177346019E-02 0.120912516E-02 0.799013476E-03 0.510341779E-03 0.314051344E-03 0.185507524E-03 0.104729195E-03 0.562238092E-04 0.285312399E-04 0.135885057E-04 0.602199316E-05 0.245734304E-05 0.911343079E-06 0.302129564E-06 0.876182611E-07 0.215823643E-07 0.432827685E-08 0.661352029E-09 0.684042198E-10 0.575760516E-10 0.774380907E-10 0.241938691E-10 0.239232884E-09 0.161275804E-08 0.828597546E-08 0.346682825E-07 0.123227252E-06 0.383210192E-06 0.106539801E-05 0.269223642E-05 0.626462770E-05 0.135646442E-04 0.275661951E-04 0.529529498E-04 0.967252199E-04 0.168856772E-03 0.282941241E-03 0.456749956E-03 0.712607871E-03 0.107749412E-02 0.158277305E-02 0.226349244E-02 0.315719913E-02 0.430227956E-02 0.573587278E-02 0.749145448E-02 0.959624816E-02 0.119039062E-01 0.143350353E-01 0.167947691E-01 0.191793721E-01 0.213831663E-01 0.233050734E-01 0.248543527E-01 0.259553026E-01 0.265508294E-01 0.266051199E-01 0.261051580E-01 0.250617526E-01 0.235096011E-01 0.215068031E-01 0.191333797E-01 0.164891575E-01 0.136904083E-01 0.108650373E-01 0.814631954E-02 0.566487666E-02 0.353870145E-02 0.186150277E-02 0.690097921E-03 0.701118186E-08
0.203457824E-02 0.469205901E-02 0.803390890E-02 0.120209279E-01 0.165422186E-01 0.214399230E-01 0.265295971E-01 0.316163972E-01 0.365075022E-01 0.410213694E-01 0.449944623E-01 0.482860431E-01 0.507816561E-01 0.523955971E-01 0.530729182E-01 0.527910367E-01 0.515610166E-01 0.494284332E-01 0.464735702E-01 0.428104475E-01 0.385841541E-01 0.339659043E-01 0.291452669E-01 0.243194327E-01 0.196798760E-01 0.155897532E-01 0.120727271E-01 0.912559777E-02 0.672162184E-02 0.481529301E-02 0.334797287E-02 0.225372775E-02 0.146481220E-02 0.916317222E-03 0.549667922E-03 0.314841804E-03 0.171336345E-03 0.880653606E-04 0.424519603E-04 0.190298233E-04 0.785055818E-05 0.294224196E-05 0.985432280E-06 0.288668502E-06 0.718243314E-07 0.145518380E-07 0.224696994E-08 0.234736675E-09 0.809183762E-10 0.100960969E-09 0.837326458E-10 0.823334900E-09 0.549339241E-08 0.279456920E-07 0.115802663E-06 0.407714936E-06 0.125584381E-05 0.345767739E-05 0.865025959E-05 0.199192091E-04 0.426594961E-04 0.856920960E-04 0.162591197E-03 0.293116318E-03 0.504580734E-03 0.832934049E-03 0.132330693E-02 0.202976097E-02 0.301403645E-02 0.434315577E-02 0.608587731E-02 0.830811262E-02 0.110676000E-01 0.144082448E-01 0.183546413E-01 0.229074061E-01 0.277348422E-01 0.326575302E-01 0.374804959E-01 0.420064144E-01 0.460473858E-01 0.494344458E-01 0.520247966E-01 0.537067465E-01 0.544029884E-01 0.540725663E-01 0.527116805E-01 0.503543951E-01 0.470724776E-01 0.429750644E-01 0.382072069E-01 0.329479612E-01 0.274064709E-01 0.218156148E-01 0.164228156E-01 0.114769619E-01 0.721060717E-02 0.381734781E-02 0.142523937E-02 0.136831222E-07
0.377329509E-02 0.857700035E-02 0.145243537E-01 0.215387568E-01 0.294197612E-01 0.378940105E-01 0.466534123E-01 0.553825609E-01 0.637776181E-01 0.715586022E-01 0.784769952E-01 0.843199044E-01 0.889124349E-01 0.921188816E-01 0.938437730E-01 0.940331444E-01 0.926763639E-01 0.898084790E-01 0.855128467E-01 0.799234957E-01 0.732260570E-01 0.656563938E-01 0.574949384E-01 0.490557961E-01 0.406696238E-01 0.329868831E-01 0.261375364E-01 0.201997887E-01 0.151994145E-01 0.111137992E-01 0.787976384E-02 0.540405000E-02 0.357501861E-02 0.227412512E-02 0.138593221E-02 0.805787626E-03 0.444728706E-03 0.231644051E-03 0.113074391E-03 0.512936313E-04 0.214012689E-04 0.810805795E-05 0.274409786E-05 0.812065707E-06 0.204089659E-06 0.417658690E-07 0.651497256E-08 0.687513158E-09 0.120229979E-09 0.130642913E-09 0.247863452E-09 0.241664067E-08 0.159654832E-07 0.804395768E-07 0.330166642E-06 0.115138027E-05 0.351218841E-05 0.957387056E-05 0.237042441E-04 0.539948669E-04 0.114321898E-03 0.226883029E-03 0.424999715E-03 0.755818211E-03 0.128240697E-02 0.208466616E-02 0.325848092E-02 0.491264695E-02 0.716335885E-02 0.101263141E-01 0.139069352E-01 0.185894705E-01 0.242261216E-01 0.308274943E-01 0.383555926E-01 0.467204861E-01 0.553083569E-01 0.637944564E-01 0.718536004E-01 0.791792870E-01 0.854980573E-01 0.905787051E-01 0.942376554E-01 0.963411778E-01 0.968059376E-01 0.955990329E-01 0.927372202E-01 0.882876217E-01 0.823681206E-01 0.751486272E-01 0.668514967E-01 0.577520616E-01 0.481764376E-01 0.384956263E-01 0.291146431E-01 0.204543583E-01 0.129235936E-01 0.688010361E-02 0.258074538E-02 0.233378916E-07
0.634055771E-02 0.142049110E-01 0.237888806E-01 0.349563472E-01 0.473745838E-01 0.606098063E-01 0.741923526E-01 0.876590535E-01 0.100578755E+00 0.112566113E+00 0.123287521E+00 0.132461905E+00 0.139859259E+00 0.145298108E+00 0.148643330E+00 0.149805427E+00 0.148741439E+00 0.145458132E+00 0.140017137E+00 0.132541656E+00 0.123223849E+00 0.112330757E+00 0.100206673E+00 0.872686356E-01 0.739924312E-01 0.613636486E-01 0.496975221E-01 0.392386056E-01 0.301468764E-01 0.224926956E-01 0.162607301E-01 0.113620069E-01 0.765186688E-02 0.495098671E-02 0.306647364E-02 0.181038782E-02 0.101377687E-02 0.535329047E-03 0.264722883E-03 0.121567486E-03 0.513154991E-04 0.196581605E-04 0.672423721E-05 0.201045873E-05 0.510358745E-06 0.105479288E-06 0.166166725E-07 0.177089365E-08 0.194582281E-09 0.173456804E-09 0.645436593E-09 0.623616847E-08 0.408087324E-07 0.203679988E-06 0.828146767E-06 0.286038585E-05 0.863979494E-05 0.233118371E-04 0.571059281E-04 0.128629181E-03 0.269142154E-03 0.527502154E-03 0.975127507E-03 0.171002001E-02 0.285868440E-02 0.457475660E-02 0.703342445E-02 0.104211569E-01 0.149210589E-01 0.206948370E-01 0.278632808E-01 0.364875607E-01 0.465539619E-01 0.579644702E-01 0.705348775E-01 0.840012804E-01 0.974030122E-01 0.110250212E+00 0.122088492E+00 0.132518768E+00 0.141207963E+00 0.147892401E+00 0.152376488E+00 0.154529124E+00 0.154279575E+00 0.151614755E+00 0.146577239E+00 0.139267027E+00 0.129844174E+00 0.118534222E+00 0.105633289E+00 0.915144980E-01 0.766314417E-01 0.615163445E-01 0.467709191E-01 0.330448858E-01 0.209969301E-01 0.112337321E-01 0.422494998E-02 0.359082648E-07
0.986351818E-02 0.217757970E-01 0.360617675E-01 0.524980910E-01 0.705689564E-01 0.896318927E-01 0.109021150E+00 0.128107697E+00 0.146330088E+00 0.163206309E+00 0.178334251E+00 0.191385418E+00 0.202096283E+00 0.210259110E+00 0.215714216E+00 0.218344823E+00 0.218075439E+00 0.214873880E+00 0.208757862E+00 0.199805647E+00 0.188170135E+00 0.174095169E+00 0.157930478E+00 0.140141591E+00 0.121308856E+00 0.102722138E+00 0.849411711E-01 0.684614107E-01 0.536762550E-01 0.408502780E-01 0.301070623E-01 0.214329809E-01 0.146956751E-01 0.967347808E-02 0.609058840E-02 0.365236751E-02 0.207578181E-02 0.111161987E-02 0.557050633E-03 0.259046297E-03 0.110656481E-03 0.428724743E-04 0.148237250E-04 0.447812363E-05 0.114818499E-05 0.239625109E-06 0.381135301E-07 0.410076950E-08 0.338537059E-09 0.242190185E-09 0.151056034E-08 0.144643444E-07 0.937869729E-07 0.463802479E-06 0.186820967E-05 0.639100836E-05 0.191128365E-04 0.510372265E-04 0.123668084E-03 0.275377242E-03 0.569248397E-03 0.110147090E-02 0.200871378E-02 0.347241829E-02 0.571780326E-02 0.900572538E-02 0.136164445E-01 0.198256336E-01 0.278746225E-01 0.379382037E-01 0.500945374E-01 0.643016621E-01 0.803850740E-01 0.980386287E-01 0.116839677E+00 0.136276796E+00 0.155048788E+00 0.172525525E+00 0.188166410E+00 0.201531485E+00 0.212280154E+00 0.220162764E+00 0.225008875E+00 0.226715818E+00 0.225239545E+00 0.220589787E+00 0.212828159E+00 0.202072755E+00 0.188505262E+00 0.172383517E+00 0.154054493E+00 0.133971214E+00 0.112706691E+00 0.909619108E-01 0.695640445E-01 0.494462699E-01 0.315990746E-01 0.169828013E-01 0.639362494E-02 0.510048146E-07
0.144318668E-01 0.313909054E-01 0.514009893E-01 0.741198286E-01 0.987916365E-01 0.124517441E+00 0.150408417E+00 0.175664514E+00 0.199606732E+00 0.221681714E+00 0.241451576E+00 0.258576274E+00 0.272794336E+00 0.283904582E+00 0.291750431E+00 0.296209067E+00 0.297184736E+00 0.294608355E+00 0.288442701E+00 0.278695285E+00 0.265437335E+00 0.248829752E+00 0.229152769E+00 0.206835479E+00 0.182477579E+00 0.157552451E+00 0.132871389E+00 0.109230235E+00 0.873418674E-01 0.677753612E-01 0.509115569E-01 0.369221047E-01 0.257746670E-01 0.172622465E-01 0.110502765E-01 0.673224591E-02 0.388421561E-02 0.210997649E-02 0.107172865E-02 0.504797150E-03 0.218254572E-03 0.855326507E-04 0.298967789E-04 0.912546875E-05 0.236307233E-05 0.497916858E-06 0.799390918E-07 0.868023253E-08 0.609103656E-09 0.358205132E-09 0.323020166E-08 0.306625303E-07 0.197059322E-06 0.965767072E-06 0.385430621E-05 0.130595226E-04 0.386668908E-04 0.102174527E-03 0.244855648E-03 0.538898690E-03 0.110031117E-02 0.210141833E-02 0.377974147E-02 0.643950375E-02 0.104423072E-01 0.161848255E-01 0.240636691E-01 0.344301797E-01 0.475408845E-01 0.635107830E-01 0.822778642E-01 0.103585288E+00 0.126985714E+00 0.151868165E+00 0.177503914E+00 0.203104407E+00 0.227123797E+00 0.248864487E+00 0.267779440E+00 0.283463061E+00 0.295631468E+00 0.304097921E+00 0.308749825E+00 0.309530079E+00 0.306424052E+00 0.299454749E+00 0.288682491E+00 0.274214387E+00 0.256218106E+00 0.234943584E+00 0.210747764E+00 0.184125826E+00 0.155741796E+00 0.126453713E+00 0.973274857E-01 0.696262196E-01 0.447573401E-01 0.241568945E-01 0.909214839E-02 0.680452601E-07
0.200994741E-01 0.430619568E-01 0.697128177E-01 0.995571688E-01 0.131539315E+00 0.164460570E+00 0.197193980E+00 0.228779092E+00 0.258448631E+00 0.285618544E+00 0.309861064E+00 0.330870986E+00 0.348433346E+00 0.362393737E+00 0.372634292E+00 0.379055470E+00 0.381564289E+00 0.380068958E+00 0.374481440E+00 0.364728779E+00 0.350773662E+00 0.332646608E+00 0.310487568E+00 0.284595639E+00 0.255478978E+00 0.224603266E+00 0.192969546E+00 0.161660299E+00 0.131746754E+00 0.104188964E+00 0.797449201E-01 0.589049906E-01 0.418627039E-01 0.285264198E-01 0.185674690E-01 0.114936950E-01 0.673284056E-02 0.371052721E-02 0.191061618E-02 0.911612122E-03 0.398976466E-03 0.158164999E-03 0.558886713E-04 0.172356977E-04 0.450722882E-05 0.958667670E-06 0.155312691E-06 0.170140968E-07 0.109288734E-08 0.554374102E-09 0.639334408E-08 0.601833676E-07 0.383484235E-06 0.186296415E-05 0.736750917E-05 0.247268617E-04 0.724837300E-04 0.189524944E-03 0.449152343E-03 0.976936775E-03 0.196992373E-02 0.371284992E-02 0.658562873E-02 0.110561885E-01 0.176542699E-01 0.269249938E-01 0.393656157E-01 0.553532206E-01 0.750751793E-01 0.984747410E-01 0.125223577E+00 0.154727668E+00 0.186167613E+00 0.218567267E+00 0.250879616E+00 0.282075584E+00 0.310538709E+00 0.335611343E+00 0.356836885E+00 0.373923331E+00 0.386701137E+00 0.395083725E+00 0.399034828E+00 0.398545563E+00 0.393620729E+00 0.384275526E+00 0.370538563E+00 0.352467448E+00 0.330170006E+00 0.303837091E+00 0.273780495E+00 0.240483239E+00 0.204652384E+00 0.167270154E+00 0.129634619E+00 0.933711082E-01 0.603858344E-01 0.327252783E-01 0.123020876E-01 0.863835155E-07
0.268894490E-01 0.567275733E-01 0.907870904E-01 0.128387332E+00 0.168113202E+00 0.208432361E+00 0.247980207E+00 0.285664171E+00 0.320674092E+00 0.352448553E+00 0.380623937E+00 0.404981405E+00 0.425398886E+00 0.441810220E+00 0.454172283E+00 0.462440729E+00 0.466552407E+00 0.466415554E+00 0.461907953E+00 0.452883780E+00 0.439192176E+00 0.420709342E+00 0.397386640E+00 0.369314969E+00 0.336801112E+00 0.301084310E+00 0.263230532E+00 0.224521995E+00 0.186356589E+00 0.150116488E+00 0.117025912E+00 0.880238190E-01 0.636762977E-01 0.441449396E-01 0.292151775E-01 0.183757525E-01 0.109294662E-01 0.611116365E-02 0.319018890E-02 0.154197216E-02 0.683146704E-03 0.273947837E-03 0.978546304E-04 0.304873247E-04 0.804994579E-05 0.172796695E-05 0.282412429E-06 0.312000132E-07 0.191211158E-08 0.877687534E-09 0.118327925E-07 0.110502263E-06 0.698336976E-06 0.336364565E-05 0.131839442E-04 0.438340212E-04 0.127224353E-03 0.329175644E-03 0.771452265E-03 0.165821367E-02 0.330197369E-02 0.614136178E-02 0.107415728E-01 0.177694149E-01 0.279388465E-01 0.419292636E-01 0.602865033E-01 0.833223835E-01 0.111032695E+00 0.143051043E+00 0.178651020E+00 0.216798782E+00 0.256247908E+00 0.295659840E+00 0.333728701E+00 0.369288921E+00 0.400869519E+00 0.427969187E+00 0.450312376E+00 0.467783153E+00 0.480363756E+00 0.488084257E+00 0.490985602E+00 0.489096075E+00 0.482419789E+00 0.470936805E+00 0.454609960E+00 0.433406234E+00 0.407325387E+00 0.376443088E+00 0.340963721E+00 0.301291496E+00 0.258111626E+00 0.212476447E+00 0.165886566E+00 0.120341763E+00 0.783184245E-01 0.426144786E-01 0.159889553E-01 0.105404716E-06
0.348003246E-01 0.722713023E-01 0.114333279E+00 0.160089195E+00 0.207709029E+00 0.255306304E+00 0.301298082E+00 0.344506234E+00 0.384137422E+00 0.419714332E+00 0.450995445E+00 0.477898568E+00 0.500437379E+00 0.518669784E+00 0.532658458E+00 0.542441547E+00 0.548011482E+00 0.549301088E+00 0.546177149E+00 0.538442075E+00 0.525845826E+00 0.508113563E+00 0.484991252E+00 0.456315845E+00 0.422110081E+00 0.383187801E+00 0.340518296E+00 0.295435101E+00 0.249556452E+00 0.204643652E+00 0.162416607E+00 0.124358617E+00 0.915494636E-01 0.645616055E-01 0.434390381E-01 0.277599748E-01 0.167637449E-01 0.950980000E-02 0.503276568E-02 0.246419362E-02 0.110506988E-02 0.448230043E-03 0.161832970E-03 0.509299025E-04 0.135754417E-04 0.294016172E-05 0.484610098E-06 0.539717142E-07 0.322799498E-08 0.139092204E-08 0.206493276E-07 0.191380948E-06 0.119994843E-05 0.573210355E-05 0.222720701E-04 0.733693450E-04 0.210868966E-03 0.539930712E-03 0.125140359E-02 0.265829032E-02 0.522750663E-02 0.959457457E-02 0.165482033E-01 0.269753933E-01 0.417657159E-01 0.616842881E-01 0.872339979E-01 0.118533738E+00 0.155241057E+00 0.196538791E+00 0.241193861E+00 0.287678421E+00 0.334331036E+00 0.379527360E+00 0.421828359E+00 0.460084051E+00 0.493180931E+00 0.520873070E+00 0.543129563E+00 0.560043991E+00 0.571761072E+00 0.578422606E+00 0.580132127E+00 0.576935232E+00 0.568811536E+00 0.555678785E+00 0.537402928E+00 0.513823867E+00 0.484788924E+00 0.450205415E+00 0.410106540E+00 0.364744902E+00 0.314705938E+00 0.261038125E+00 0.205390319E+00 0.150123760E+00 0.983386487E-01 0.537242778E-01 0.201091524E-01 0.124579316E-06