<?xml version="1.0"?>
<VTKFile type="StructuredGrid">
<StructuredGrid WholeExtent="     0   100     0   100     0     0">
<Piece Extent="     0   100     0   100     0     0">
<Points>
<DataArray type="Float32" NumberOfComponents="3"/>
0.000000000E+00 0.000000000E+00 0.000000000E+00 0.199999996E-01 0.000000000E+00 0.000000000E+00 0.399999991E-01 0.000000000E+00 0.000000000E+00 0.599999987E-01 0.000000000E+00 0.000000000E+00 0.799999982E-01 0.000000000E+00 0.000000000E+00 0.100000001E+00 0.000000000E+00 0.000000000E+00 0.119999997E+00 0.000000000E+00 0.000000000E+00 0.140000001E+00 0.000000000E+00 0.000000000E+00 0.159999996E+00 0.000000000E+00 0.000000000E+00 0.180000007E+00 0.000000000E+00 0.000000000E+00 0.200000003E+00 0.000000000E+00 0.000000000E+00 0.219999999E+00 0.000000000E+00 0.000000000E+00 0.239999995E+00 0.000000000E+00 0.000000000E+00 0.259999990E+00 0.000000000E+00 0.000000000E+00 0.280000001E+00 0.000000000E+00 0.000000000E+00 0.300000012E+00 0.000000000E+00 0.000000000E+00 0.319999993E+00 0.000000000E+00 0.000000000E+00 0.340000004E+00 0.000000000E+00 0.000000000E+00 0.360000014E+00 0.000000000E+00 0.000000000E+00 0.379999995E+00 0.000000000E+00 0.000000000E+00 0.400000006E+00 0.000000000E+00 0.000000000E+00 0.419999987E+00 0.000000000E+00 0.000000000E+00 0.439999998E+00 0.000000000E+00 0.000000000E+00 0.460000008E+00 0.000000000E+00 0.000000000E+00 0.479999989E+00 0.000000000E+00 0.000000000E+00 0.500000000E+00 0.000000000E+00 0.000000000E+00 0.519999981E+00 0.000000000E+00 0.000000000E+00 0.540000021E+00 0.000000000E+00 0.000000000E+00 0.560000002E+00 0.000000000E+00 0.000000000E+00 0.579999983E+00 0.000000000E+00 0.000000000E+00 0.600000024E+00 0.000000000E+00 0.000000000E+00 0.620000005E+00 0.000000000E+00 0.000000000E+00 0.639999986E+00 0.000000000E+00 0.000000000E+00 0.660000026E+00 0.000000000E+00 0.000000000E+00 0.680000007E+00 0.000000000E+00 0.000000000E+00 0.699999988E+00 0.000000000E+00 0.000000000E+00 0.720000029E+00 0.000000000E+00 0.000000000E+00 0.740000010E+00 0.000000000E+00 0.000000000E+00 0.759999990E+00 0.000000000E+00 0.000000000E+00 0.779999971E+00 0.000000000E+00 0.000000000E+00 0.800000012E+00 0.000000000E+00 0.000000000E+00 0.819999993E+00 0.000000000E+00 0.000000000E+00 0.839999974E+00 0.000000000E+00 0.000000000E+00 0.860000014E+00 0.000000000E+00 0.000000000E+00 0.879999995E+00 0.000000000E+00 0.000000000E+00 0.899999976E+00 0.000000000E+00 0.000000000E+00 0.920000017E+00 0.000000000E+00 0.000000000E+00 0.939999998E+00 0.000000000E+00 0.000000000E+00 0.959999979E+00 0.000000000E+00 0.000000000E+00 0.980000019E+00 0.000000000E+00 0.000000000E+00 0.100000000E+01 0.000000000E+00 0.000000000E+00 0.101999998E+01 0.000000000E+00 0.000000000E+00 0.103999996E+01 0.000000000E+00 0.000000000E+00 0.105999994E+01 0.000000000E+00 0.000000000E+00 0.108000004E+01 0.000000000E+00 0.000000000E+00 0.110000002E+01 0.000000000E+00 0.000000000E+00 0.112000000E+01 0.000000000E+00 0.000000000E+00 0.113999999E+01 0.000000000E+00 0.000000000E+00 0.115999997E+01 0.000000000E+00 0.000000000E+00 0.117999995E+01 0.000000000E+00 0.000000000E+00 0.120000005E+01 0.000000000E+00 0.000000000E+00 0.122000003E+01 0.000000000E+00 0.000000000E+00 0.124000001E+01 0.000000000E+00 0.000000000E+00 0.125999999E+01 0.000000000E+00 0.000000000E+00 0.127999997E+01 0.000000000E+00 0.000000000E+00 0.129999995E+01 0.000000000E+00 0.000000000E+00 0.132000005E+01 0.000000000E+00 0.000000000E+00 0.134000003E+01 0.000000000E+00 0.000000000E+00 0.136000001E+01 0.000000000E+00 0.000000000E+00 0.138000000E+01 0.000000000E+00 0.000000000E+00 0.139999998E+01 0.000000000E+00 0.000000000E+00 0.141999996E+01 0.000000000E+00 0.000000000E+00 0.144000006E+01 0.000000000E+00 0.000000000E+00 0.146000004E+01 0.000000000E+00 0.000000000E+00 0.148000002E+01 0.000000000E+00 0.000000000E+00 0.150000000E+01 0.000000000E+00 0.000000000E+00 0.151999998E+01 0.000000000E+00 0.000000000E+00 0.153999996E+01 0.000000000E+00 0.000000000E+00 0.155999994E+01 0.000000000E+00 0.000000000E+00 0.158000004E+01 0.000000000E+00 0.000000000E+00 0.160000002E+01 0.000000000E+00 0.000000000E+00 0.162000000E+01 0.000000000E+00 0.000000000E+00 0.163999999E+01 0.000000000E+00 0.000000000E+00 0.165999997E+01 0.000000000E+00 0.000000000E+00 0.167999995E+01 0.000000000E+00 0.000000000E+00 0.170000005E+01 0.000000000E+00 0.000000000E+00 0.172000003E+01 0.000000000E+00 0.000000000E+00 0.174000001E+01 0.000000000E+00 0.000000000E+00 0.175999999E+01 0.000000000E+00 0.000000000E+00 0.177999997E+01 0.000000000E+00 0.000000000E+00 0.179999995E+01 0.000000000E+00 0.000000000E+00 0.182000005E+01 0.000000000E+00 0.000000000E+00 0.184000003E+01 0.000000000E+00 0.000000000E+00 0.186000001E+01 0.000000000E+00 0.000000000E+00 0.188000000E+01 0.000000000E+00 0.000000000E+00 0.189999998E+01 0.000000000E+00 0.000000000E+00 0.191999996E+01 0.000000000E+00 0.000000000E+00 0.194000006E+01 0.000000000E+00 0.000000000E+00 0.196000004E+01 0.000000000E+00 0.000000000E+00 0.198000002E+01 0.000000000E+00 0.000000000E+00 0.200000000E+01 0.000000000E+00 0.000000000E+00
0.000000000E+00 0.999999978E-02 0.000000000E+00 0.199999996E-01 0.999999978E-02 0.000000000E+00 0.399999991E-01 0.999999978E-02 0.000000000E+00 0.599999987E-01 0.999999978E-02 0.000000000E+00 0.799999982E-01 0.999999978E-02 0.000000000E+00 0.100000001E+00 0.999999978E-02 0.000000000E+00 0.119999997E+00 0.999999978E-02 0.000000000E+00 0.140000001E+00 0.999999978E-02 0.000000000E+00 0.159999996E+00 0.999999978E-02 0.000000000E+00 0.180000007E+00 0.999999978E-02 0.000000000E+00 0.200000003E+00 0.999999978E-02 0.000000000E+00 0.219999999E+00 0.999999978E-02 0.000000000E+00 0.239999995E+00 0.999999978E-02 0.000000000E+00 0.259999990E+00 0.999999978E-02 0.000000000E+00 0.280000001E+00 0.999999978E-02 0.000000000E+00 0.300000012E+00 0.999999978E-02 0.000000000E+00 0.319999993E+00 0.999999978E-02 0.000000000E+00 0.340000004E+00 0.999999978E-02 0.000000000E+00 0.360000014E+00 0.999999978E-02 0.000000000E+00 0.379999995E+00 0.999999978E-02 0.000000000E+00 0.400000006E+00 0.999999978E-02 0.000000000E+00 0.419999987E+00 0.999999978E-02 0.000000000E+00 0.439999998E+00 0.999999978E-02 0.000000000E+00 0.460000008E+00 0.999999978E-02 0.000000000E+00 0.479999989E+00 0.999999978E-02 0.000000000E+00 0.500000000E+00 0.999999978E-02 0.000000000E+00 0.519999981E+00 0.999999978E-02 0.000000000E+00 0.540000021E+00 0.999999978E-02 0.000000000E+00 0.560000002E+00 0.999999978E-02 0.000000000E+00 0.579999983E+00 0.999999978E-02 0.000000000E+00 0.600000024E+00 0.999999978E-02 0.000000000E+00 0.620000005E+00 0.999999978E-02 0.000000000E+00 0.639999986E+00 0.999999978E-02 0.000000000E+00 0.660000026E+00 0.999999978E-02 0.000000000E+00 0.680000007E+00 0.999999978E-02 0.000000000E+00 0.699999988E+00 0.999999978E-02 0.000000000E+00 0.720000029E+00 0.999999978E-02 0.000000000E+00 0.740000010E+00 0.999999978E-02 0.000000000E+00 0.759999990E+00 0.999999978E-02 0.000000000E+00 0.779999971E+00 0.999999978E-02 0.000000000E+00 0.800000012E+00 0.999999978E-02 0.000000000E+00 0.819999993E+00 0.999999978E-02 0.000000000E+00 0.839999974E+00 0.999999978E-02 0.000000000E+00 0.860000014E+00 0.999999978E-02 0.000000000E+00 0.879999995E+00 0.999999978E-02 0.000000000E+00 0.899999976E+00 0.999999978E-02 0.000000000E+00 0.920000017E+00 0.999999978E-02 0.000000000E+00 0.939999998E+00 0.999999978E-02 0.000000000E+00 0.959999979E+00 0.999999978E-02 0.000000000E+00 0.980000019E+00 0.999999978E-02 0.000000000E+00 0.100000000E+01 0.999999978E-02 0.000000000E+00 0.101999998E+01 0.999999978E-02 0.000000000E+00 0.103999996E+01 0.999999978E-02 0.000000000E+00 0.105999994E+01 0.999999978E-02 0.000000000E+00 0.108000004E+01 0.999999978E-02 0.000000000E+00 0.110000002E+01 0.999999978E-02 0.000000000E+00 0.112000000E+01 0.999999978E-02 0.000000000E+00 0.113999999E+01 0.999999978E-02 0.000000000E+00 0.115999997E+01 0.999999978E-02 0.000000000E+00 0.117999995E+01 0.999999978E-02 0.000000000E+00 0.120000005E+01 0.999999978E-02 0.000000000E+00 0.122000003E+01 0.999999978E-02 0.000000000E+00 0.124000001E+01 0.999999978E-02 0.000000000E+00 0.125999999E+01 0.999999978E-02 0.000000000E+00 0.127999997E+01 0.999999978E-02 0.000000000E+00 0.129999995E+01 0.999999978E-02 0.000000000E+00 0.132000005E+01 0.999999978E-02 0.000000000E+00 0.134000003E+01 0.999999978E-02 0.000000000E+00 0.136000001E+01 0.999999978E-02 0.000000000E+00 0.138000000E+01 0.999999978E-02 0.000000000E+00 0.139999998E+01 0.999999978E-02 0.000000000E+00 0.141999996E+01 0.999999978E-02 0.000000000E+00 0.144000006E+01 0.999999978E-02 0.000000000E+00 0.146000004E+01 0.999999978E-02 0.000000000E+00 0.148000002E+01 0.999999978E-02 0.000000000E+00 0.150000000E+01 0.999999978E-02 0.000000000E+00 0.151999998E+01 0.999999978E-02 0.000000000E+00 0.153999996E+01 0.999999978E-02 0.000000000E+00 0.155999994E+01 0.999999978E-02 0.000000000E+00 0.158000004E+01 0.999999978E-02 0.000000000E+00 0.160000002E+01 0.999999978E-02 0.000000000E+00 0.162000000E+01 0.999999978E-02 0.000000000E+00 0.163999999E+01 0.999999978E-02 0.000000000E+00 0.165999997E+01 0.999999978E-02 0.000000000E+00 0.167999995E+01 0.999999978E-02 0.000000000E+00 0.170000005E+01 0.999999978E-02 0.000000000E+00 0.172000003E+01 0.999999978E-02 0.000000000E+00 0.174000001E+01 0.999999978E-02 0.000000000E+00 0.175999999E+01 0.999999978E-02 0.000000000E+00 0.177999997E+01 0.999999978E-02 0.000000000E+00 0.179999995E+01 0.999999978E-02 0.000000000E+00 0.182000005E+01 0.999999978E-02 0.000000000E+00 0.184000003E+01 0.999999978E-02 0.000000000E+00 0.186000001E+01 0.999999978E-02 0.000000000E+00 0.188000000E+01 0.999999978E-02 0.000000000E+00 0.189999998E+01 0.999999978E-02 0.000000000E+00 0.191999996E+01 0.999999978E-02 0.000000000E+00 0.194000006E+01 0.999999978E-02 0.000000000E+00 0.196000004E+01 0.999999978E-02 0.000000000E+00 0.198000002E+01 0.999999978E-02 0.000000000E+00 0.200000000E+01 0.999999978E-02 0.000000000E+00
[...]
<CellData Scalars="Temperature, U, V">
<DataArray type="Float32" Name="Temp, K"/>
0.175456036E-11 0.126660462E-10 0.549220912E-10 0.169049760E-09 0.405133899E-09 0.801477662E-09 0.136035705E-08 0.203385131E-08 0.272836331E-08 0.332753181E-08 0.372485820E-08 0.385350329E-08 0.370263686E-08 0.331582140E-08 0.277408652E-08 0.217137508E-08 0.159134028E-08 0.109214415E-08 0.701702529E-09 0.421770868E-09 0.236917819E-09 0.124204397E-09 0.606741463E-10 0.275681162E-10 0.116269173E-10 0.478450656E-11 0.191619659E-11 0.744918558E-12 0.280276263E-12 0.101744066E-12 0.355132658E-13 0.118741415E-13 0.378747564E-14 0.114722005E-14 0.328306212E-15 0.882599331E-16 0.221458815E-16 0.514831382E-17 0.109948258E-17 0.213575682E-18 0.372941875E-19 0.577123146E-20 0.777604201E-21 0.893593361E-22 0.771063258E-19 0.569792446E-16 0.190812840E-13 0.343618276E-11 0.324101634E-09 0.459443789E-09 0.657657566E-11 0.483467026E-13 0.201670419E-15 0.467486086E-18 0.502695339E-21 0.146666054E-21 0.111680076E-20 0.740408962E-20 0.435007628E-19 0.229745072E-18 0.110367483E-17 0.487079472E-17 0.199168664E-16 0.760175674E-16 0.272579914E-15 0.923530928E-15 0.297172806E-14 0.912350961E-14 0.268357436E-13 0.759106455E-13 0.207217571E-12 0.547596094E-12 0.140499103E-11 0.350949651E-11 0.855606645E-11 0.204077068E-10 0.452795197E-10 0.936161981E-10 0.180635021E-09 0.325695915E-09 0.549318591E-09 0.867256267E-09 0.128214028E-08 0.177482873E-08 0.229906849E-08 0.278346568E-08 0.314319704E-08 0.330049166E-08 0.320846971E-08 0.286981727E-08 0.234166975E-08 0.172237924E-08 0.112295617E-08 0.633481212E-09 0.298346875E-09 0.111038088E-09 0.298790957E-10 0.497192218E-11 0.364109269E-12 0.127235019E-17
0.225673698E-10 0.155481544E-09 0.651085297E-09 0.195524508E-08 0.460895277E-08 0.902637343E-08 0.152468314E-07 0.227864234E-07 0.306731422E-07 0.376668474E-07 0.425861835E-07 0.446238921E-07 0.435428262E-07 0.396968183E-07 0.338877264E-07 0.271240257E-07 0.203686792E-07 0.143513388E-07 0.948335455E-08 0.587246474E-08 0.340386430E-08 0.184415927E-08 0.932335320E-09 0.439005221E-09 0.192122734E-09 0.819046497E-10 0.339345184E-10 0.136294561E-10 0.529206496E-11 0.198052143E-11 0.712058071E-12 0.245055116E-12 0.804061814E-13 0.250417397E-13 0.736602890E-14 0.203503160E-14 0.524720923E-15 0.125360453E-15 0.275190317E-16 0.549657092E-17 0.987364965E-18 0.157274138E-18 0.218277179E-19 0.262383952E-20 0.183383202E-18 0.125356244E-15 0.409729657E-13 0.730416595E-11 0.686540602E-09 0.971985825E-09 0.139012612E-10 0.102598445E-12 0.432470115E-15 0.102808024E-17 0.165097425E-20 0.423753965E-20 0.313227029E-19 0.201757572E-18 0.115247818E-17 0.592119416E-17 0.276838243E-16 0.118944668E-15 0.473595656E-15 0.176021779E-14 0.614579536E-14 0.202710197E-13 0.634779433E-13 0.189564280E-12 0.542026981E-12 0.148934446E-11 0.394562898E-11 0.101087611E-10 0.251157983E-10 0.606704340E-10 0.142830581E-09 0.328429117E-09 0.703361480E-09 0.140543954E-08 0.262441424E-08 0.458595917E-08 0.750732276E-08 0.115225163E-07 0.165888192E-07 0.224029666E-07 0.283669266E-07 0.336401129E-07 0.372922422E-07 0.385334324E-07 0.369564965E-07 0.327042997E-07 0.264841589E-07 0.194007832E-07 0.126482576E-07 0.716880555E-08 0.341199380E-08 0.129277655E-08 0.357494617E-09 0.618502818E-10 0.477119949E-11 0.168235037E-16
0.196788516E-09 0.129924171E-08 0.527136113E-08 0.154803441E-07 0.359439127E-07 0.697396203E-07 0.117256569E-06 0.175130296E-06 0.236422238E-06 0.292074816E-06 0.333158056E-06 0.353139143E-06 0.349435652E-06 0.323809928E-06 0.281589053E-06 0.230075074E-06 0.176715730E-06 0.127588095E-06 0.865464997E-07 0.551061241E-07 0.328946861E-07 0.183810585E-07 0.959781055E-08 0.467385242E-08 0.211805684E-08 0.933491950E-09 0.399249689E-09 0.165312347E-09 0.660939012E-10 0.254432430E-10 0.940095918E-11 0.332238837E-11 0.111874399E-11 0.357390522E-12 0.107792762E-12 0.305283278E-13 0.806847078E-14 0.197590975E-14 0.444685574E-15 0.910858931E-16 0.167864212E-16 0.274470294E-17 0.391285640E-18 0.476927687E-19 0.326908266E-18 0.206678368E-15 0.660361184E-13 0.116545870E-10 0.109128895E-08 0.154299462E-08 0.220599511E-10 0.163507364E-12 0.696378185E-15 0.169565284E-17 0.112978687E-19 0.780002496E-19 0.561307031E-18 0.352246882E-17 0.196159844E-16 0.983051351E-16 0.448493993E-15 0.188086355E-14 0.731077356E-14 0.265258667E-13 0.904015632E-13 0.290976336E-12 0.888835013E-12 0.258788455E-11 0.720966559E-11 0.192864388E-10 0.496972984E-10 0.123711458E-09 0.298282510E-09 0.698289093E-09 0.159073366E-08 0.353350926E-08 0.731898187E-08 0.141623921E-07 0.256438568E-07 0.435125251E-07 0.692698592E-07 0.103552921E-06 0.145448254E-06 0.191974507E-06 0.238018018E-06 0.276936703E-06 0.301848559E-06 0.307355151E-06 0.291193828E-06 0.255227519E-06 0.205300680E-06 0.149863581E-06 0.977157057E-07 0.556281776E-07 0.267317617E-07 0.102933475E-07 0.291728197E-08 0.522816568E-09 0.422921177E-10 0.149943652E-15
0.126690936E-08 0.803401434E-08 0.316407238E-07 0.909781406E-07 0.208223057E-06 0.400354338E-06 0.669992630E-06 0.999749204E-06 0.135285734E-05 0.168031420E-05 0.193230767E-05 0.207022936E-05 0.207557355E-05 0.195323537E-05 0.172869306E-05 0.144047522E-05 0.113056603E-05 0.835644130E-06 0.581317920E-06 0.380222161E-06 0.233515848E-06 0.134448271E-06 0.724362508E-07 0.364442627E-07 0.170845222E-07 0.777633069E-08 0.342972828E-08 0.146246382E-08 0.601422967E-09 0.237882186E-09 0.902240227E-10 0.327044919E-10 0.112874822E-10 0.369382823E-11 0.114078668E-11 0.330725763E-12 0.894605028E-13 0.224213873E-13 0.516463432E-14 0.108297842E-14 0.204387819E-15 0.342389941E-16 0.500382273E-17 0.624189094E-18 0.563391991E-18 0.302769598E-15 0.946850901E-13 0.165443787E-10 0.154272384E-08 0.217838192E-08 0.311489064E-10 0.231930794E-12 0.998019535E-15 0.249575776E-17 0.127518124E-18 0.102266107E-17 0.717910798E-17 0.439793270E-16 0.239216001E-15 0.117146277E-14 0.522419640E-14 0.214197438E-13 0.814034102E-13 0.288764563E-12 0.961971930E-12 0.302564462E-11 0.902736913E-11 0.256575525E-10 0.697284522E-10 0.181806320E-09 0.456175570E-09 0.110451959E-08 0.258712340E-08 0.587557158E-08 0.129650211E-07 0.278490511E-07 0.558462681E-07 0.104750839E-06 0.184098468E-06 0.303619089E-06 0.470485105E-06 0.685691646E-06 0.940501877E-06 0.121434857E-05 0.147559945E-05 0.168599854E-05 0.180840266E-05 0.181611779E-05 0.170104477E-05 0.147774506E-05 0.118141725E-05 0.859756767E-06 0.560795797E-06 0.320650713E-06 0.155508587E-06 0.607991666E-07 0.176328996E-07 0.326616778E-08 0.276322604E-09 0.981938297E-15
0.644541531E-08 0.393470323E-07 0.150687129E-06 0.424715495E-06 0.958746682E-06 0.182712336E-05 0.304306218E-05 0.453497296E-05 0.614803912E-05 0.767213987E-05 0.888784962E-05 0.961653586E-05 0.975994681E-05 0.931865452E-05 0.838572396E-05 0.711939992E-05 0.570421889E-05 0.431210174E-05 0.307334199E-05 0.206292725E-05 0.130223930E-05 0.771785437E-06 0.428613049E-06 0.222573206E-06 0.107823936E-06 0.506343909E-07 0.230059065E-07 0.100921209E-07 0.426442526E-08 0.173119896E-08 0.673267497E-09 0.250024834E-09 0.883418130E-10 0.295785063E-10 0.934165766E-11 0.276854104E-11 0.765374417E-12 0.196026558E-12 0.461429567E-13 0.988908933E-14 0.190797602E-14 0.326877002E-15 0.488796145E-16 0.624037669E-17 0.137966809E-17 0.415810406E-15 0.127395964E-12 0.220376772E-10 0.204568229E-08 0.288467472E-08 0.412762463E-10 0.308847782E-12 0.134278090E-14 0.354343908E-17 0.127753631E-17 0.102269972E-16 0.701720673E-16 0.420418742E-15 0.223755527E-14 0.107255445E-13 0.468297378E-13 0.188008748E-12 0.699623627E-12 0.242978055E-11 0.792276227E-11 0.243814621E-10 0.711399828E-10 0.197609734E-09 0.524469079E-09 0.133431277E-08 0.326352234E-08 0.769387043E-08 0.175250587E-07 0.386507750E-07 0.826952302E-07 0.171943782E-06 0.334150656E-06 0.608148639E-06 0.103841398E-05 0.166615928E-05 0.251557481E-05 0.357767613E-05 0.479658092E-05 0.606426283E-05 0.722891900E-05 0.811869631E-05 0.857730083E-05 0.850314518E-05 0.788027955E-05 0.679033883E-05 0.539905886E-05 0.391899948E-05 0.255797863E-05 0.146904495E-05 0.718788499E-06 0.285101322E-06 0.844888675E-07 0.161409837E-07 0.142433865E-08 0.505698532E-14
0.270851679E-07 0.159517199E-06 0.595043787E-06 0.164573032E-05 0.366613904E-05 0.692591129E-05 0.114778495E-04 0.170761414E-04 0.231792601E-04 0.290409389E-04 0.338636055E-04 0.369702684E-04 0.379478515E-04 0.367252796E-04 0.335700024E-04 0.290094686E-04 0.237041622E-04 0.183085813E-04 0.133560097E-04 0.919116610E-05 0.595767824E-05 0.363094955E-05 0.207646690E-05 0.111180987E-05 0.556031182E-06 0.269125024E-06 0.125842249E-06 0.567357326E-07 0.246084131E-07 0.102431361E-07 0.408039291E-08 0.155075242E-08 0.560322733E-09 0.191724969E-09 0.618479989E-10 0.187141986E-10 0.528059974E-11 0.138017636E-11 0.331518938E-12 0.725048412E-13 0.142780109E-13 0.249741756E-14 0.381439847E-15 0.497626265E-16 0.637387247E-17 0.548627793E-15 0.164716304E-12 0.282068379E-10 0.260551336E-08 0.366908437E-08 0.525635820E-10 0.395377687E-12 0.173698664E-14 0.559836873E-17 0.103838960E-16 0.815909450E-16 0.548190618E-15 0.321771300E-14 0.167845643E-13 0.788766161E-13 0.337685988E-12 0.132938300E-11 0.485047289E-11 0.165138996E-10 0.527699655E-10 0.159078431E-09 0.454432741E-09 0.123503885E-08 0.320456928E-08 0.796332600E-08 0.190050073E-07 0.436692282E-07 0.968254383E-07 0.207578381E-06 0.431057714E-06 0.868459949E-06 0.163723314E-05 0.289407512E-05 0.480576909E-05 0.750928166E-05 0.110571928E-04 0.153607234E-04 0.201495495E-04 0.249687982E-04 0.292271034E-04 0.322955057E-04 0.336391277E-04 0.329497743E-04 0.302400695E-04 0.258670007E-04 0.204691023E-04 0.148280196E-04 0.968848781E-05 0.558919828E-05 0.275835077E-05 0.110913686E-05 0.335408004E-06 0.659518093E-07 0.605421757E-08 0.214074550E-13
0.970231184E-07 0.552411507E-06 0.201030366E-05 0.546100546E-05 0.120105069E-04 0.224935793E-04 0.370834750E-04 0.550523509E-04 0.747758022E-04 0.939888268E-04 0.110223344E-03 0.121309247E-03 0.125810824E-03 0.123293328E-03 0.114363924E-03 0.100490484E-03 0.836572799E-04 0.659530269E-04 0.491952378E-04 0.346741654E-04 0.230558671E-04 0.144354854E-04 0.849258868E-05 0.468390363E-05 0.241580483E-05 0.120396714E-05 0.578825734E-06 0.267948536E-06 0.119182758E-06 0.508169187E-07 0.207148538E-07 0.804884071E-08 0.297094416E-08 0.103777387E-08 0.341560336E-09 0.105397149E-09 0.303181820E-10 0.807628790E-11 0.197690996E-11 0.440595612E-12 0.884256725E-13 0.157663765E-13 0.245549515E-14 0.326794920E-15 0.374034827E-16 0.706120017E-15 0.207276592E-12 0.351335940E-10 0.322814397E-08 0.453959359E-08 0.651479357E-10 0.492802630E-12 0.218833058E-14 0.132765466E-16 0.695862712E-16 0.536290917E-15 0.353432862E-14 0.203575627E-13 0.104238551E-12 0.480942434E-12 0.202172350E-11 0.781466818E-11 0.279920791E-10 0.935365674E-10 0.293251978E-09 0.866924421E-09 0.242717313E-08 0.646055920E-08 0.164046323E-07 0.398564950E-07 0.929034059E-07 0.208256978E-06 0.449908924E-06 0.938484789E-06 0.189337220E-05 0.369995837E-05 0.677320986E-05 0.116400142E-04 0.188158720E-04 0.286598552E-04 0.411975743E-04 0.559588661E-04 0.718911178E-04 0.874028265E-04 0.100563215E-03 0.109438413E-03 0.112495713E-03 0.108977387E-03 0.991356283E-04 0.842504378E-04 0.664010076E-04 0.480342496E-04 0.314310746E-04 0.182172444E-04 0.906655259E-05 0.369351596E-05 0.113835472E-05 0.229933661E-06 0.218998792E-07 0.768805931E-13
0.303417607E-06 0.167334372E-05 0.594938638E-05 0.158874464E-04 0.345095468E-04 0.640710641E-04 0.105049854E-03 0.155538422E-03 0.211255829E-03 0.266186107E-03 0.313672383E-03 0.347687223E-03 0.363977975E-03 0.360829290E-03 0.339289545E-03 0.302836532E-03 0.256588450E-03 0.206266152E-03 0.157161208E-03 0.113340102E-03 0.772319036E-04 0.496275752E-04 0.300057363E-04 0.170294497E-04 0.904901208E-05 0.463909009E-05 0.229097964E-05 0.108793017E-05 0.495798190E-06 0.216347630E-06 0.901639368E-07 0.357841934E-07 0.134804239E-07 0.480232920E-08 0.161098324E-08 0.506414410E-09 0.148340173E-09 0.402269121E-10 0.100220908E-10 0.227322284E-11 0.464324705E-12 0.842704473E-13 0.133625317E-13 0.181127302E-14 0.205498769E-15 0.901837567E-15 0.255804411E-12 0.429103905E-10 0.392014687E-08 0.550504886E-08 0.791838400E-10 0.602593116E-12 0.270743875E-14 0.504321068E-16 0.393243569E-15 0.297638653E-14 0.192709025E-13 0.109087733E-12 0.549078849E-12 0.249063010E-11 0.102932853E-10 0.391127443E-10 0.137699199E-09 0.452098803E-09 0.139209799E-08 0.403982581E-08 0.110959615E-07 0.289535809E-07 0.720122344E-07 0.171214523E-06 0.390142276E-06 0.853969766E-06 0.179917674E-05 0.365502046E-05 0.717085277E-05 0.136054741E-04 0.242090991E-04 0.404877792E-04 0.637731500E-04 0.947823428E-04 0.133138659E-03 0.176995876E-03 0.222924282E-03 0.266173301E-03 0.301331922E-03 0.323289365E-03 0.328290509E-03 0.314831850E-03 0.284148147E-03 0.240131165E-03 0.188643942E-03 0.136363131E-03 0.894023251E-04 0.520721005E-04 0.261326950E-04 0.107798023E-04 0.338226778E-05 0.700489920E-06 0.690458890E-07 0.239914425E-12
0.844125907E-06 0.451748701E-05 0.157127142E-04 0.412791087E-04 0.885798509E-04 0.163023971E-03 0.265734532E-03 0.392192655E-03 0.532293634E-03 0.671790680E-03 0.794741209E-03 0.886362744E-03 0.935672782E-03 0.937366567E-03 0.892578741E-03 0.808416866E-03 0.696411356E-03 0.570259755E-03 0.443384197E-03 0.326843117E-03 0.228012883E-03 0.150221895E-03 0.932520052E-04 0.544066461E-04 0.297552815E-04 0.156770329E-04 0.794537937E-05 0.386713964E-05 0.180410666E-05 0.804990918E-06 0.342694705E-06 0.138802321E-06 0.533183631E-07 0.193540313E-07 0.661115207E-08 0.211505569E-08 0.630245578E-09 0.173800890E-09 0.440220568E-10 0.101500336E-10 0.210737504E-11 0.388791077E-12 0.626790083E-13 0.864025529E-14 0.991139615E-15 0.118430019E-14 0.311141683E-12 0.516419546E-10 0.468882000E-08 0.657526167E-08 0.948458326E-10 0.726438332E-12 0.331374917E-14 0.222300674E-15 0.191063401E-14 0.142232146E-13 0.906050069E-13 0.504754712E-12 0.250069453E-11 0.111655182E-10 0.454197582E-10 0.169849274E-09 0.588329996E-09 0.189982297E-08 0.575099435E-08 0.163979408E-07 0.442245174E-07 0.113226278E-06 0.276077458E-06 0.642888267E-06 0.143329601E-05 0.306604466E-05 0.630514660E-05 0.124857752E-04 0.238438861E-04 0.439677133E-04 0.761190313E-04 0.124007929E-03 0.190515508E-03 0.276557374E-03 0.379988080E-03 0.494907727E-03 0.611709955E-03 0.718049065E-03 0.800663722E-03 0.847738818E-03 0.851288496E-03 0.809013261E-03 0.725132180E-03 0.609928218E-03 0.477994909E-03 0.345509121E-03 0.227083307E-03 0.132954723E-03 0.672814422E-04 0.280904387E-04 0.896345773E-05 0.190015533E-05 0.193352676E-06 0.663038309E-12
0.212144573E-05 0.110355704E-04 0.375960881E-04 0.972303969E-04 0.206165394E-03 0.376070297E-03 0.609200157E-03 0.895709905E-03 0.121389853E-02 0.153322250E-02 0.181926636E-02 0.203952426E-02 0.216882676E-02 0.219339714E-02 0.211284449E-02 0.193978148E-02 0.169720489E-02 0.141420413E-02 0.112090970E-02 0.843757181E-03 0.602026528E-03 0.406266510E-03 0.258674932E-03 0.154995389E-03 0.871589436E-04 0.471496169E-04 0.245025331E-04 0.122128422E-04 0.582777329E-05 0.265683116E-05 0.115443254E-05 0.476803535E-06 0.186608943E-06 0.689620450E-07 0.239666953E-07 0.779639286E-08 0.236108444E-08 0.661473876E-09 0.170161094E-09 0.398380634E-10 0.839782844E-11 0.157301158E-11 0.257493896E-12 0.360480959E-13 0.419418613E-14 0.172768114E-14 0.374270249E-12 0.614470766E-10 0.554228086E-08 0.776113485E-08 0.112331443E-09 0.866284204E-12 0.405577417E-14 0.930617629E-15 0.811084022E-14 0.594691600E-13 0.373225268E-12 0.204881316E-11 0.100027877E-10 0.440119469E-10 0.176408207E-09 0.649874210E-09 0.221690177E-08 0.704735381E-08 0.209908730E-07 0.588571041E-07 0.155991927E-06 0.392178407E-06 0.938195228E-06 0.214147349E-05 0.467496193E-05 0.978130174E-05 0.196499641E-04 0.379633748E-04 0.706327555E-04 0.126708081E-03 0.213639200E-03 0.339366525E-03 0.509023725E-03 0.722407363E-03 0.971858564E-03 0.124132994E-02 0.150722137E-02 0.174114585E-02 0.191425718E-02 0.200232305E-02 0.199045171E-02 0.187644886E-02 0.167196197E-02 0.140105200E-02 0.109627866E-02 0.792975421E-03 0.522767834E-03 0.307782000E-03 0.157061921E-03 0.663465325E-04 0.215112523E-04 0.466022266E-05 0.488394676E-06 0.164823623E-11
0.487813895E-05 0.247032913E-04 0.825220413E-04 0.210208993E-03 0.440486299E-03 0.796235807E-03 0.128127169E-02 0.187559146E-02 0.253623212E-02 0.320315757E-02 0.380856474E-02 0.428755395E-02 0.458820118E-02 0.467936555E-02 0.455504749E-02 0.423466368E-02 0.375924329E-02 0.318423146E-02 0.257025892E-02 0.197369815E-02 0.143890374E-02 0.993635273E-03 0.648288697E-03 0.398549339E-03 0.230213831E-03 0.127753141E-03 0.680172016E-04 0.346900924E-04 0.169187424E-04 0.787467707E-05 0.348979779E-05 0.146868047E-05 0.585200382E-06 0.220003827E-06 0.777277265E-07 0.256889372E-07 0.789991450E-08 0.224643437E-08 0.586356130E-09 0.139254247E-09 0.297724415E-10 0.565567385E-11 0.938928731E-12 0.133324544E-12 0.157302167E-13 0.310321532E-14 0.446353349E-12 0.724607041E-10 0.648956489E-08 0.907479425E-08 0.131864381E-09 0.102437839E-11 0.507251271E-14 0.351996061E-14 0.304942059E-13 0.220503723E-12 0.136506691E-11 0.739247726E-11 0.356056677E-10 0.154541435E-09 0.610936579E-09 0.221920304E-08 0.746197593E-08 0.233713795E-07 0.685508965E-07 0.189165533E-06 0.493065897E-06 0.121817152E-05 0.286131672E-05 0.640653525E-05 0.137050502E-04 0.280679378E-04 0.551279591E-04 0.103997634E-03 0.188683771E-03 0.329606119E-03 0.541759713E-03 0.839928980E-03 0.123116688E-02 0.170990045E-02 0.225452171E-02 0.282684551E-02 0.337522174E-02 0.384113891E-02 0.416822266E-02 0.431188755E-02 0.424764259E-02 0.397643121E-02 0.352575071E-02 0.294620544E-02 0.230374513E-02 0.166881864E-02 0.110420014E-02 0.653993047E-03 0.336580386E-03 0.143815472E-03 0.473416621E-04 0.104659703E-04 0.112715225E-05 0.373384310E-11
0.103742495E-04 0.512148399E-04 0.167919075E-03 0.421507517E-03 0.872937497E-03 0.156331772E-02 0.249778316E-02 0.363802002E-02 0.490475306E-02 0.618863525E-02 0.736647192E-02 0.831936765E-02 0.894978549E-02 0.919505116E-02 0.903563108E-02 0.849709287E-02 0.764543936E-02 0.657644169E-02 0.540061062E-02 0.422646385E-02 0.314529031E-02 0.222044368E-02 0.148308184E-02 0.934572658E-03 0.553988037E-03 0.315088080E-03 0.171726817E-03 0.895510602E-04 0.446056038E-04 0.211810075E-04 0.956690474E-05 0.409968925E-05 0.166190864E-05 0.635141873E-06 0.227953748E-06 0.764844970E-07 0.238653168E-07 0.688259760E-08 0.182123416E-08 0.438355685E-09 0.949623435E-10 0.182760456E-10 0.307376954E-11 0.442188522E-12 0.528550423E-13 0.699153023E-14 0.528814460E-12 0.848362908E-10 0.754074581E-08 0.105297406E-07 0.153698540E-09 0.120333279E-11 0.675739423E-14 0.119812734E-13 0.102721332E-12 0.733419944E-12 0.448371505E-11 0.239793446E-10 0.114053371E-09 0.488783791E-09 0.190745819E-08 0.683771928E-08 0.226806485E-07 0.700438676E-07 0.202462516E-06 0.550232414E-06 0.141147802E-05 0.342926683E-05 0.791420734E-05 0.173942462E-04 0.364891785E-04 0.732021945E-04 0.140674441E-03 0.259339489E-03 0.459229137E-03 0.781928713E-03 0.125407719E-02 0.189940690E-02 0.272338744E-02 0.370500959E-02 0.479245931E-02 0.590474252E-02 0.693988428E-02 0.778859900E-02 0.835090782E-02 0.855254289E-02 0.835799146E-02 0.777795399E-02 0.686968816E-02 0.573000545E-02 0.448147627E-02 0.325368322E-02 0.216213637E-02 0.128882099E-02 0.669073372E-03 0.289121526E-03 0.965643267E-04 0.217558463E-04 0.240280065E-05 0.779407875E-11