<?xml version="1.0"?>
<VTKFile type="StructuredGrid">
<StructuredGrid WholeExtent="     0   100     0   100     0     0">
<Piece Extent="     0   100     0   100     0     0">
<Points>
<DataArray type="Float32" NumberOfComponents="3"/>
0.000000000E+00 0.000000000E+00 0.000000000E+00 0.199999996E-01 0.000000000E+00 0.000000000E+00 0.399999991E-01 0.000000000E+00 0.000000000E+00 0.599999987E-01 0.000000000E+00 0.000000000E+00 0.799999982E-01 0.000000000E+00 0.000000000E+00 0.100000001E+00 0.000000000E+00 0.000000000E+00 0.119999997E+00 0.000000000E+00 0.000000000E+00 0.140000001E+00 0.000000000E+00 0.000000000E+00 0.159999996E+00 0.000000000E+00 0.000000000E+00 0.180000007E+00 0.000000000E+00 0.000000000E+00 0.200000003E+00 0.000000000E+00 0.000000000E+00 0.219999999E+00 0.000000000E+00 0.000000000E+00 0.239999995E+00 0.000000000E+00 0.000000000E+00 0.259999990E+00 0.000000000E+00 0.000000000E+00 0.280000001E+00 0.000000000E+00 0.000000000E+00 0.300000012E+00 0.000000000E+00 0.000000000E+00 0.319999993E+00 0.000000000E+00 0.000000000E+00 0.340000004E+00 0.000000000E+00 0.000000000E+00 0.360000014E+00 0.000000000E+00 0.000000000E+00 0.379999995E+00 0.000000000E+00 0.000000000E+00 0.400000006E+00 0.000000000E+00 0.000000000E+00 0.419999987E+00 0.000000000E+00 0.000000000E+00 0.439999998E+00 0.000000000E+00 0.000000000E+00 0.460000008E+00 0.000000000E+00 0.000000000E+00 0.479999989E+00 0.000000000E+00 0.000000000E+00 0.500000000E+00 0.000000000E+00 0.000000000E+00 0.519999981E+00 0.000000000E+00 0.000000000E+00 0.540000021E+00 0.000000000E+00 0.000000000E+00 0.560000002E+00 0.000000000E+00 0.000000000E+00 0.579999983E+00 0.000000000E+00 0.000000000E+00 0.600000024E+00 0.000000000E+00 0.000000000E+00 0.620000005E+00 0.000000000E+00 0.000000000E+00 0.639999986E+00 0.000000000E+00 0.000000000E+00 0.660000026E+00 0.000000000E+00 0.000000000E+00 0.680000007E+00 0.000000000E+00 0.000000000E+00 0.699999988E+00 0.000000000E+00 0.000000000E+00 0.720000029E+00 0.000000000E+00 0.000000000E+00 0.740000010E+00 0.000000000E+00 0.000000000E+00 0.759999990E+00 0.000000000E+00 0.000000000E+00 0.779999971E+00 0.000000000E+00 0.000000000E+00 0.800000012E+00 0.000000000E+00 0.000000000E+00 0.819999993E+00 0.000000000E+00 0.000000000E+00 0.839999974E+00 0.000000000E+00 0.000000000E+00 0.860000014E+00 0.000000000E+00 0.000000000E+00 0.879999995E+00 0.000000000E+00 0.000000000E+00 0.899999976E+00 0.000000000E+00 0.000000000E+00 0.920000017E+00 0.000000000E+00 0.000000000E+00 0.939999998E+00 0.000000000E+00 0.000000000E+00 0.959999979E+00 0.000000000E+00 0.000000000E+00 0.980000019E+00 0.000000000E+00 0.000000000E+00 0.100000000E+01 0.000000000E+00 0.000000000E+00 0.101999998E+01 0.000000000E+00 0.000000000E+00 0.103999996E+01 0.000000000E+00 0.000000000E+00 0.105999994E+01 0.000000000E+00 0.000000000E+00 0.108000004E+01 0.000000000E+00 0.000000000E+00 0.110000002E+01 0.000000000E+00 0.000000000E+00 0.112000000E+01 0.000000000E+00 0.000000000E+00 0.113999999E+01 0.000000000E+00 0.000000000E+00 0.115999997E+01 0.000000000E+00 0.000000000E+00 0.117999995E+01 0.000000000E+00 0.000000000E+00 0.120000005E+01 0.000000000E+00 0.000000000E+00 0.122000003E+01 0.000000000E+00 0.000000000E+00 0.124000001E+01 0.000000000E+00 0.000000000E+00 0.125999999E+01 0.000000000E+00 0.000000000E+00 0.127999997E+01 0.000000000E+00 0.000000000E+00 0.129999995E+01 0.000000000E+00 0.000000000E+00 0.132000005E+01 0.000000000E+00 0.000000000E+00 0.134000003E+01 0.000000000E+00 0.000000000E+00 0.136000001E+01 0.000000000E+00 0.000000000E+00 0.138000000E+01 0.000000000E+00 0.000000000E+00 0.139999998E+01 0.000000000E+00 0.000000000E+00 0.141999996E+01 0.000000000E+00 0.000000000E+00 0.144000006E+01 0.000000000E+00 0.000000000E+00 0.146000004E+01 0.000000000E+00 0.000000000E+00 0.148000002E+01 0.000000000E+00 0.000000000E+00 0.150000000E+01 0.000000000E+00 0.000000000E+00 0.151999998E+01 0.000000000E+00 0.000000000E+00 0.153999996E+01 0.000000000E+00 0.000000000E+00 0.155999994E+01 0.000000000E+00 0.000000000E+00 0.158000004E+01 0.000000000E+00 0.000000000E+00 0.160000002E+01 0.000000000E+00 0.000000000E+00 0.162000000E+01 0.000000000E+00 0.000000000E+00 0.163999999E+01 0.000000000E+00 0.000000000E+00 0.165999997E+01 0.000000000E+00 0.000000000E+00 0.167999995E+01 0.000000000E+00 0.000000000E+00 0.170000005E+01 0.000000000E+00 0.000000000E+00 0.172000003E+01 0.000000000E+00 0.000000000E+00 0.174000001E+01 0.000000000E+00 0.000000000E+00 0.175999999E+01 0.000000000E+00 0.000000000E+00 0.177999997E+01 0.000000000E+00 0.000000000E+00 0.179999995E+01 0.000000000E+00 0.000000000E+00 0.182000005E+01 0.000000000E+00 0.000000000E+00 0.184000003E+01 0.000000000E+00 0.000000000E+00 0.186000001E+01 0.000000000E+00 0.000000000E+00 0.188000000E+01 0.000000000E+00 0.000000000E+00 0.189999998E+01 0.000000000E+00 0.000000000E+00 0.191999996E+01 0.000000000E+00 0.000000000E+00 0.194000006E+01 0.000000000E+00 0.000000000E+00 0.196000004E+01 0.000000000E+00 0.000000000E+00 0.198000002E+01 0.000000000E+00 0.000000000E+00 0.200000000E+01 0.000000000E+00 0.000000000E+00
0.000000000E+00 0.999999978E-02 0.000000000E+00 0.199999996E-01 0.999999978E-02 0.000000000E+00 0.399999991E-01 0.999999978E-02 0.000000000E+00 0.599999987E-01 0.999999978E-02 0.000000000E+00 0.799999982E-01 0.999999978E-02 0.000000000E+00 0.100000001E+00 0.999999978E-02 0.000000000E+00 0.119999997E+00 0.999999978E-02 0.000000000E+00 0.140000001E+00 0.999999978E-02 0.000000000E+00 0.159999996E+00 0.999999978E-02 0.000000000E+00 0.180000007E+00 0.999999978E-02 0.000000000E+00 0.200000003E+00 0.999999978E-02 0.000000000E+00 0.219999999E+00 0.999999978E-02 0.000000000E+00 0.239999995E+00 0.999999978E-02 0.000000000E+00 0.259999990E+00 0.999999978E-02 0.000000000E+00 0.280000001E+00 0.999999978E-02 0.000000000E+00 0.300000012E+00 0.999999978E-02 0.000000000E+00 0.319999993E+00 0.999999978E-02 0.000000000E+00 0.340000004E+00 0.999999978E-02 0.000000000E+00 0.360000014E+00 0.999999978E-02 0.000000000E+00 0.379999995E+00 0.999999978E-02 0.000000000E+00 0.400000006E+00 0.999999978E-02 0.000000000E+00 0.419999987E+00 0.999999978E-02 0.000000000E+00 0.439999998E+00 0.999999978E-02 0.000000000E+00 0.460000008E+00 0.999999978E-02 0.000000000E+00 0.479999989E+00 0.999999978E-02 0.000000000E+00 0.500000000E+00 0.999999978E-02 0.000000000E+00 0.519999981E+00 0.999999978E-02 0.000000000E+00 0.540000021E+00 0.999999978E-02 0.000000000E+00 0.560000002E+00 0.999999978E-02 0.000000000E+00 0.579999983E+00 0.999999978E-02 0.000000000E+00 0.600000024E+00 0.999999978E-02 0.000000000E+00 0.620000005E+00 0.999999978E-02 0.000000000E+00 0.639999986E+00 0.999999978E-02 0.000000000E+00 0.660000026E+00 0.999999978E-02 0.000000000E+00 0.680000007E+00 0.999999978E-02 0.000000000E+00 0.699999988E+00 0.999999978E-02 0.000000000E+00 0.720000029E+00 0.999999978E-02 0.000000000E+00 0.740000010E+00 0.999999978E-02 0.000000000E+00 0.759999990E+00 0.999999978E-02 0.000000000E+00 0.779999971E+00 0.999999978E-02 0.000000000E+00 0.800000012E+00 0.999999978E-02 0.000000000E+00 0.819999993E+00 0.999999978E-02 0.000000000E+00 0.839999974E+00 0.999999978E-02 0.000000000E+00 0.860000014E+00 0.999999978E-02 0.000000000E+00 0.879999995E+00 0.999999978E-02 0.000000000E+00 0.899999976E+00 0.999999978E-02 0.000000000E+00 0.920000017E+00 0.999999978E-02 0.000000000E+00 0.939999998E+00 0.999999978E-02 0.000000000E+00 0.959999979E+00 0.999999978E-02 0.000000000E+00 0.980000019E+00 0.999999978E-02 0.000000000E+00 0.100000000E+01 0.999999978E-02 0.000000000E+00 0.101999998E+01 0.999999978E-02 0.000000000E+00 0.103999996E+01 0.999999978E-02 0.000000000E+00 0.105999994E+01 0.999999978E-02 0.000000000E+00 0.108000004E+01 0.999999978E-02 0.000000000E+00 0.110000002E+01 0.999999978E-02 0.000000000E+00 0.112000000E+01 0.999999978E-02 0.000000000E+00 0.113999999E+01 0.999999978E-02 0.000000000E+00 0.115999997E+01 0.999999978E-02 0.000000000E+00 0.117999995E+01 0.999999978E-02 0.000000000E+00 0.120000005E+01 0.999999978E-02 0.000000000E+00 0.122000003E+01 0.999999978E-02 0.000000000E+00 0.124000001E+01 0.999999978E-02 0.000000000E+00 0.125999999E+01 0.999999978E-02 0.000000000E+00 0.127999997E+01 0.999999978E-02 0.000000000E+00 0.129999995E+01 0.999999978E-02 0.000000000E+00 0.132000005E+01 0.999999978E-02 0.000000000E+00 0.134000003E+01 0.999999978E-02 0.000000000E+00 0.136000001E+01 0.999999978E-02 0.000000000E+00 0.138000000E+01 0.999999978E-02 0.000000000E+00 0.139999998E+01 0.999999978E-02 0.000000000E+00 0.141999996E+01 0.999999978E-02 0.000000000E+00 0.144000006E+01 0.999999978E-02 0.000000000E+00 0.146000004E+01 0.999999978E-02 0.000000000E+00 0.148000002E+01 0.999999978E-02 0.000000000E+00 0.150000000E+01 0.999999978E-02 0.000000000E+00 0.151999998E+01 0.999999978E-02 0.000000000E+00 0.153999996E+01 0.999999978E-02 0.000000000E+00 0.155999994E+01 0.999999978E-02 0.000000000E+00 0.158000004E+01 0.999999978E-02 0.000000000E+00 0.160000002E+01 0.999999978E-02 0.000000000E+00 0.162000000E+01 0.999999978E-02 0.000000000E+00 0.163999999E+01 0.999999978E-02 0.000000000E+00 0.165999997E+01 0.999999978E-02 0.000000000E+00 0.167999995E+01 0.999999978E-02 0.000000000E+00 0.170000005E+01 0.999999978E-02 0.000000000E+00 0.172000003E+01 0.999999978E-02 0.000000000E+00 0.174000001E+01 0.999999978E-02 0.000000000E+00 0.175999999E+01 0.999999978E-02 0.000000000E+00 0.177999997E+01 0.999999978E-02 0.000000000E+00 0.179999995E+01 0.999999978E-02 0.000000000E+00 0.182000005E+01 0.999999978E-02 0.000000000E+00 0.184000003E+01 0.999999978E-02 0.000000000E+00 0.186000001E+01 0.999999978E-02 0.000000000E+00 0.188000000E+01 0.999999978E-02 0.000000000E+00 0.189999998E+01 0.999999978E-02 0.000000000E+00 0.191999996E+01 0.999999978E-02 0.000000000E+00 0.194000006E+01 0.999999978E-02 0.000000000E+00 0.196000004E+01 0.999999978E-02 0.000000000E+00 0.198000002E+01 0.999999978E-02 0.000000000E+00 0.200000000E+01 0.999999978E-02 0.000000000E+00
[...]
<CellData Scalars="Temperature, U, V">
<DataArray type="Float32" Name="Temp, K"/>
0.257668842E-03 0.567295239E-03 0.926286739E-03 0.132674421E-02 0.175663852E-02 0.220103236E-02 0.264328509E-02 0.306618982E-02 0.345300883E-02 0.378838694E-02 0.405912753E-02 0.425481657E-02 0.436829031E-02 0.439595059E-02 0.433790078E-02 0.419792393E-02 0.398328062E-02 0.370433507E-02 0.337401219E-02 0.300709857E-02 0.261941087E-02 0.222687214E-02 0.184454722E-02 0.148571876E-02 0.116108090E-02 0.895958976E-03 0.681854959E-03 0.511075137E-03 0.376701937E-03 0.272565114E-03 0.193211104E-03 0.133870548E-03 0.904227927E-04 0.593577097E-04 0.377336291E-04 0.231318882E-04 0.136074223E-04 0.763603748E-05 0.405904075E-05 0.202640922E-05 0.940196173E-06 0.400135207E-06 0.153618174E-06 0.520513552E-07 0.151097854E-07 0.360043750E-08 0.658703037E-09 0.820292168E-10 0.104535894E-10 0.939964252E-11 0.323713174E-10 0.268069705E-09 0.151103852E-08 0.653692389E-08 0.232031194E-07 0.705241092E-07 0.189080936E-06 0.457045047E-06 0.101277908E-05 0.208450933E-05 0.402707064E-05 0.736530365E-05 0.128434040E-04 0.214793890E-04 0.346239212E-04 0.540226283E-04 0.818818298E-04 0.120936726E-03 0.174522924E-03 0.246650277E-03 0.342080952E-03 0.466410595E-03 0.626154535E-03 0.828839955E-03 0.108310289E-02 0.139879296E-02 0.175372488E-02 0.213889475E-02 0.254227035E-02 0.294940663E-02 0.334424595E-02 0.371003360E-02 0.403027702E-02 0.428968016E-02 0.447500590E-02 0.457584066E-02 0.458519114E-02 0.449996768E-02 0.432126038E-02 0.405446487E-02 0.370918144E-02 0.329896598E-02 0.284086331E-02 0.235470897E-02 0.186225423E-02 0.138608983E-02 0.948368863E-03 0.569350668E-03 0.265852985E-03 0.409239620E-08
0.836496300E-03 0.181530404E-02 0.293130288E-02 0.416336628E-02 0.547862938E-02 0.683639897E-02 0.819162466E-02 0.949789397E-02 0.107099572E-01 0.117858499E-01 0.126885986E-01 0.133875925E-01 0.138596538E-01 0.140898237E-01 0.140718939E-01 0.138086723E-01 0.133119831E-01 0.126023497E-01 0.117083453E-01 0.106655518E-01 0.951509085E-02 0.830173027E-02 0.707158074E-02 0.586947706E-02 0.473621115E-02 0.376744801E-02 0.295073143E-02 0.227245968E-02 0.171826093E-02 0.127339154E-02 0.923129555E-03 0.653151714E-03 0.449872488E-03 0.300734391E-03 0.194434338E-03 0.121080433E-03 0.722733457E-04 0.411127767E-04 0.221338632E-04 0.111831241E-04 0.524805500E-05 0.225810641E-05 0.876256081E-06 0.300089539E-06 0.880603253E-07 0.212203499E-07 0.392859922E-08 0.495480712E-09 0.424411478E-10 0.273085998E-10 0.198351557E-09 0.162199132E-08 0.903531205E-08 0.386592234E-07 0.135793698E-06 0.408569775E-06 0.108447364E-05 0.259496596E-05 0.569070153E-05 0.115860412E-04 0.221275859E-04 0.399779055E-04 0.688032160E-04 0.113452385E-03 0.180114454E-03 0.276442413E-03 0.411633955E-03 0.596458500E-03 0.843228714E-03 0.116570771E-02 0.157895871E-02 0.209913310E-02 0.274320599E-02 0.352867227E-02 0.447320193E-02 0.559428521E-02 0.680464273E-02 0.806700252E-02 0.933812466E-02 0.105713122E-01 0.117189959E-01 0.127352104E-01 0.135778291E-01 0.142104803E-01 0.146041112E-01 0.147382403E-01 0.146017885E-01 0.141937286E-01 0.135233505E-01 0.126103088E-01 0.114842700E-01 0.101843858E-01 0.875834748E-02 0.726096099E-02 0.575230829E-02 0.429540081E-02 0.295317662E-02 0.178481848E-02 0.841528410E-03 0.121008830E-07
0.220824638E-02 0.473030750E-02 0.756135490E-02 0.106548350E-01 0.139356628E-01 0.173111241E-01 0.206796397E-01 0.239376426E-01 0.269848965E-01 0.297285225E-01 0.320860445E-01 0.339875929E-01 0.353776440E-01 0.362163037E-01 0.364802592E-01 0.361635648E-01 0.352781676E-01 0.338540748E-01 0.319392718E-01 0.295989811E-01 0.269142129E-01 0.239794087E-01 0.208988935E-01 0.177821182E-01 0.147377560E-01 0.120216552E-01 0.964004174E-02 0.758944778E-02 0.585759338E-02 0.442465860E-02 0.326484046E-02 0.234807841E-02 0.164184172E-02 0.111286168E-02 0.728705025E-03 0.459106144E-03 0.276984792E-03 0.159116229E-03 0.864418325E-04 0.440434378E-04 0.208328765E-04 0.903180444E-05 0.353068208E-05 0.121806931E-05 0.360143417E-06 0.874765789E-07 0.163337237E-07 0.207939221E-08 0.151067367E-09 0.756922858E-10 0.842558245E-09 0.682494683E-08 0.376935994E-07 0.160020804E-06 0.557998248E-06 0.166720838E-05 0.439509586E-05 0.104443743E-04 0.227415385E-04 0.459543553E-04 0.870633448E-04 0.155936141E-03 0.265843148E-03 0.433848094E-03 0.681011705E-03 0.103235210E-02 0.151652854E-02 0.216521625E-02 0.301218871E-02 0.409210846E-02 0.543908635E-02 0.708506349E-02 0.905809551E-02 0.113806324E-01 0.140679134E-01 0.171265583E-01 0.203157682E-01 0.235307533E-01 0.266607292E-01 0.295949318E-01 0.322279371E-01 0.344640315E-01 0.362206437E-01 0.374308787E-01 0.380453467E-01 0.380334444E-01 0.373840369E-01 0.361061059E-01 0.342288949E-01 0.318020582E-01 0.288951714E-01 0.255973004E-01 0.220158454E-01 0.182744954E-01 0.145103708E-01 0.108699240E-01 0.750308484E-02 0.455540791E-02 0.215820270E-02 0.290018090E-07
0.468599144E-02 0.990521070E-02 0.156687256E-01 0.218957290E-01 0.284475256E-01 0.351531059E-01 0.418278277E-01 0.482866280E-01 0.543531366E-01 0.598657057E-01 0.646812841E-01 0.686777830E-01 0.717555657E-01 0.738384426E-01 0.748745278E-01 0.748371854E-01 0.737260580E-01 0.715682730E-01 0.684197322E-01 0.643661171E-01 0.595233254E-01 0.540368110E-01 0.480791815E-01 0.418453664E-01 0.355448611E-01 0.296880230E-01 0.243520848E-01 0.195911024E-01 0.154346665E-01 0.118881920E-01 0.893470086E-02 0.653787190E-02 0.464610104E-02 0.319718802E-02 0.212323223E-02 0.135532790E-02 0.827679236E-03 0.480853399E-03 0.263976224E-03 0.135817114E-03 0.648320638E-04 0.283510526E-04 0.111751233E-04 0.388664466E-05 0.115842658E-05 0.283683278E-06 0.534215978E-07 0.686250523E-08 0.471552131E-09 0.209321643E-09 0.281217982E-08 0.225749925E-07 0.123639069E-06 0.520743754E-06 0.180200834E-05 0.534353603E-05 0.139793692E-04 0.329594804E-04 0.711759785E-04 0.142573263E-03 0.267594500E-03 0.474469416E-03 0.800123613E-03 0.129049690E-02 0.200009299E-02 0.299064210E-02 0.432885019E-02 0.608327519E-02 0.832049455E-02 0.111007746E-01 0.144735705E-01 0.184731558E-01 0.231147837E-01 0.283916593E-01 0.342731066E-01 0.407040045E-01 0.471896641E-01 0.535179935E-01 0.594818406E-01 0.648881346E-01 0.695645288E-01 0.733637959E-01 0.761664733E-01 0.778822154E-01 0.784502104E-01 0.778396651E-01 0.760494992E-01 0.731090307E-01 0.690782368E-01 0.640487000E-01 0.581440069E-01 0.515207760E-01 0.443687625E-01 0.369096138E-01 0.293943528E-01 0.220983606E-01 0.153127005E-01 0.933069177E-02 0.442918437E-02 0.553479360E-07
0.854714867E-02 0.178208724E-01 0.278873630E-01 0.386307091E-01 0.498299636E-01 0.612123124E-01 0.724885464E-01 0.833756551E-01 0.936103463E-01 0.102956451E+00 0.111208253E+00 0.118191317E+00 0.123762138E+00 0.127807260E+00 0.130242601E+00 0.131013557E+00 0.130095705E+00 0.127496779E+00 0.123259597E+00 0.117465764E+00 0.110239707E+00 0.101752728E+00 0.922251865E-01 0.819263533E-01 0.711696818E-01 0.607638545E-01 0.509226024E-01 0.418285094E-01 0.336238146E-01 0.264041368E-01 0.202157833E-01 0.150567759E-01 0.108814696E-01 0.760819763E-02 0.512903091E-02 0.332062109E-02 0.205492438E-02 0.120876392E-02 0.671344053E-03 0.349195645E-03 0.168404295E-03 0.743593046E-04 0.295815171E-04 0.103799684E-04 0.312070347E-05 0.770822510E-06 0.146426103E-06 0.189794154E-07 0.128345123E-08 0.543156908E-09 0.786103183E-08 0.625488852E-07 0.339682884E-06 0.141895146E-05 0.487028547E-05 0.143232910E-04 0.371552269E-04 0.868315910E-04 0.185777913E-03 0.368482375E-03 0.684370927E-03 0.119989843E-02 0.199928624E-02 0.318342820E-02 0.486665964E-02 0.717131793E-02 0.102203423E-01 0.141283404E-01 0.189919285E-01 0.248801075E-01 0.318257660E-01 0.398190357E-01 0.488033630E-01 0.586748086E-01 0.692846105E-01 0.804451481E-01 0.913485959E-01 0.101661153E+00 0.111080125E+00 0.119342059E+00 0.126226693E+00 0.131557360E+00 0.135199830E+00 0.137060046E+00 0.137081981E+00 0.135246381E+00 0.131569520E+00 0.126104459E+00 0.118942477E+00 0.110216416E+00 0.100103736E+00 0.888315216E-01 0.766805261E-01 0.639876351E-01 0.511466749E-01 0.386052392E-01 0.268548541E-01 0.164119788E-01 0.778750284E-02 0.901987960E-07
0.139704365E-01 0.287186559E-01 0.444426499E-01 0.610044226E-01 0.780885667E-01 0.953034014E-01 0.112242647E+00 0.128520876E+00 0.143791467E+00 0.157753676E+00 0.170153484E+00 0.180780292E+00 0.189462706E+00 0.196063757E+00 0.200476930E+00 0.202623710E+00 0.202452928E+00 0.199942082E+00 0.195100978E+00 0.187978104E+00 0.178668484E+00 0.167323843E+00 0.154162824E+00 0.139480084E+00 0.123651505E+00 0.107735664E+00 0.921248272E-01 0.771937519E-01 0.632768124E-01 0.506475270E-01 0.395027548E-01 0.299535226E-01 0.220233686E-01 0.156544466E-01 0.107204951E-01 0.704493606E-02 0.442163832E-02 0.263580191E-02 0.148239464E-02 0.780214497E-03 0.380474812E-03 0.169771592E-03 0.682136888E-04 0.241643138E-04 0.733182605E-05 0.182727251E-05 0.350206648E-06 0.458012792E-07 0.309242076E-08 0.128818378E-08 0.191638367E-07 0.151158787E-06 0.813920508E-06 0.337124629E-05 0.114723171E-04 0.334438628E-04 0.859652573E-04 0.198983835E-03 0.421443692E-03 0.826995296E-03 0.151854090E-02 0.263035134E-02 0.432661455E-02 0.679564662E-02 0.102395872E-01 0.148600210E-01 0.208407585E-01 0.283293519E-01 0.374195389E-01 0.481364615E-01 0.604268387E-01 0.741550550E-01 0.891060457E-01 0.104994744E+00 0.121481150E+00 0.138189510E+00 0.154026672E+00 0.168566987E+00 0.181453049E+00 0.192396194E+00 0.201171950E+00 0.207612976E+00 0.211601421E+00 0.213061973E+00 0.211956695E+00 0.208282471E+00 0.202069625E+00 0.193384930E+00 0.182335868E+00 0.169078127E+00 0.153823942E+00 0.136854023E+00 0.118529156E+00 0.993007571E-01 0.797196627E-01 0.604399368E-01 0.422122143E-01 0.258615632E-01 0.122440010E-01 0.131221029E-06
0.210389774E-01 0.426199809E-01 0.652024746E-01 0.886584967E-01 0.112575017E+00 0.136432990E+00 0.159707814E+00 0.181920558E+00 0.202659696E+00 0.221585423E+00 0.238424629E+00 0.252961248E+00 0.265025765E+00 0.274484575E+00 0.281231582E+00 0.285181254E+00 0.286265492E+00 0.284432679E+00 0.279650897E+00 0.271914542E+00 0.261255383E+00 0.247757763E+00 0.231576949E+00 0.212960199E+00 0.192267075E+00 0.170663938E+00 0.148707971E+00 0.126985192E+00 0.106073543E+00 0.865034088E-01 0.687199309E-01 0.530522168E-01 0.396933332E-01 0.286940895E-01 0.199712366E-01 0.133289322E-01 0.849001296E-02 0.513234781E-02 0.292493356E-02 0.155880651E-02 0.769166625E-03 0.347045192E-03 0.140914519E-03 0.504187046E-04 0.154444260E-04 0.388472381E-05 0.751250184E-06 0.991296005E-07 0.671996192E-08 0.279203216E-08 0.418799502E-07 0.327512595E-06 0.174847594E-05 0.717971534E-05 0.242164260E-04 0.699476223E-04 0.178069735E-03 0.408011023E-03 0.854920596E-03 0.165859819E-02 0.300896424E-02 0.514568854E-02 0.835018698E-02 0.129292794E-01 0.191912409E-01 0.274163187E-01 0.378252044E-01 0.505492426E-01 0.656067282E-01 0.828884840E-01 0.102155082E+00 0.123046301E+00 0.145101696E+00 0.167790055E+00 0.190543547E+00 0.212793291E+00 0.233285323E+00 0.251574248E+00 0.267318964E+00 0.280269176E+00 0.290248781E+00 0.297139287E+00 0.300865650E+00 0.301385283E+00 0.298680902E+00 0.292757988E+00 0.283644319E+00 0.271396279E+00 0.256107241E+00 0.237921163E+00 0.217048138E+00 0.193786412E+00 0.168545663E+00 0.141870692E+00 0.114465028E+00 0.872090906E-01 0.611647815E-01 0.375565477E-01 0.177170094E-01 0.175620173E-06
0.297603738E-01 0.593806133E-01 0.897807032E-01 0.120897785E+00 0.152228504E+00 0.183127791E+00 0.212963149E+00 0.241184518E+00 0.267347336E+00 0.291110218E+00 0.312221229E+00 0.330498815E+00 0.345813155E+00 0.358068824E+00 0.367190301E+00 0.373110980E+00 0.375765771E+00 0.375087351E+00 0.371007144E+00 0.363460511E+00 0.352398038E+00 0.337802947E+00 0.319715172E+00 0.298262477E+00 0.273696601E+00 0.247094348E+00 0.219100922E+00 0.190466508E+00 0.162004396E+00 0.134535730E+00 0.108827099E+00 0.855287686E-01 0.651223809E-01 0.478862636E-01 0.338836834E-01 0.229761507E-01 0.148590440E-01 0.911353342E-02 0.526566850E-02 0.284297694E-02 0.142012886E-02 0.648208312E-03 0.266084826E-03 0.961906044E-04 0.297551815E-04 0.755462179E-05 0.147419507E-05 0.196244144E-06 0.133867673E-07 0.557836755E-08 0.836756371E-07 0.648878938E-06 0.343471925E-05 0.139809945E-04 0.467302270E-04 0.133701004E-03 0.336982164E-03 0.764002674E-03 0.158300262E-02 0.303485547E-02 0.543688703E-02 0.917491876E-02 0.146814585E-01 0.224004574E-01 0.327418670E-01 0.460315868E-01 0.624640584E-01 0.820646212E-01 0.104668044E+00 0.129916638E+00 0.157278955E+00 0.186086193E+00 0.215581402E+00 0.244974688E+00 0.273496866E+00 0.300445706E+00 0.324596852E+00 0.345578074E+00 0.363142818E+00 0.377139688E+00 0.387483478E+00 0.394130945E+00 0.397062182E+00 0.396267682E+00 0.391740859E+00 0.383477092E+00 0.371475220E+00 0.355747908E+00 0.336334437E+00 0.313321829E+00 0.286868781E+00 0.257240117E+00 0.224845678E+00 0.190282807E+00 0.154382735E+00 0.118253782E+00 0.833091438E-01 0.512629747E-01 0.240725540E-01 0.220844498E-06
0.400900505E-01 0.787489116E-01 0.117641568E+00 0.156850517E+00 0.195799828E+00 0.233729914E+00 0.269922644E+00 0.303791285E+00 0.334900677E+00 0.362953961E+00 0.387766033E+00 0.409233212E+00 0.427304864E+00 0.441959262E+00 0.453183055E+00 0.460956305E+00 0.465241134E+00 0.465975225E+00 0.463069141E+00 0.456409425E+00 0.445866883E+00 0.431312799E+00 0.412643939E+00 0.389818788E+00 0.362904876E+00 0.332693428E+00 0.299796343E+00 0.265019804E+00 0.229334161E+00 0.193816692E+00 0.159571975E+00 0.127638176E+00 0.988926142E-01 0.739719197E-01 0.532199927E-01 0.366735272E-01 0.240872186E-01 0.149936285E-01 0.878586434E-02 0.480721565E-02 0.243172492E-02 0.112318515E-02 0.466234313E-03 0.170326239E-03 0.532133381E-04 0.136381841E-04 0.268534359E-05 0.360579577E-06 0.247730139E-07 0.103776543E-07 0.155100267E-06 0.119290632E-05 0.626134033E-05 0.252643422E-04 0.836724066E-04 0.237093147E-03 0.591489254E-03 0.132654340E-02 0.271710940E-02 0.514590647E-02 0.910049770E-02 0.151495785E-01 0.238973610E-01 0.359196998E-01 0.516902022E-01 0.715076402E-01 0.954373181E-01 0.123276457E+00 0.154550985E+00 0.188543931E+00 0.224352345E+00 0.260962278E+00 0.297331601E+00 0.332467645E+00 0.365491003E+00 0.395678043E+00 0.422036856E+00 0.444354743E+00 0.462541759E+00 0.476584971E+00 0.486511856E+00 0.492361754E+00 0.494166374E+00 0.491937459E+00 0.485660851E+00 0.475297600E+00 0.460787863E+00 0.442064732E+00 0.419071704E+00 0.391790152E+00 0.360272527E+00 0.324690253E+00 0.285391331E+00 0.242967352E+00 0.198331654E+00 0.152800262E+00 0.108160242E+00 0.666989386E-01 0.311580282E-01 0.264922107E-06
0.519510806E-01 0.100413516E+00 0.148182392E+00 0.195590705E+00 0.242017120E+00 0.286608636E+00 0.328595072E+00 0.367397785E+00 0.402641177E+00 0.434123039E+00 0.461771786E+00 0.485602707E+00 0.505680382E+00 0.522087514E+00 0.534899771E+00 0.544167876E+00 0.549903512E+00 0.552070320E+00 0.550578594E+00 0.545285106E+00 0.535997152E+00 0.522485077E+00 0.504502416E+00 0.481821060E+00 0.454281867E+00 0.422244906E+00 0.386157423E+00 0.346739233E+00 0.304983318E+00 0.262118995E+00 0.219532847E+00 0.178654581E+00 0.140820891E+00 0.107139364E+00 0.783761218E-01 0.548888631E-01 0.366179235E-01 0.231371112E-01 0.137523897E-01 0.762709975E-02 0.390774757E-02 0.182677514E-02 0.766907993E-03 0.283155387E-03 0.893488032E-04 0.231152408E-04 0.459195053E-05 0.621832896E-06 0.430397300E-07 0.181418258E-07 0.269717702E-06 0.205794754E-05 0.107124797E-04 0.428499698E-04 0.140616015E-03 0.394586037E-03 0.974259747E-03 0.216107536E-02 0.437499397E-02 0.818365347E-02 0.142842447E-01 0.234528873E-01 0.364635438E-01 0.539864190E-01 0.764823705E-01 0.104112349E+00 0.136680320E+00 0.173620686E+00 0.214034826E+00 0.256769598E+00 0.300525218E+00 0.343973041E+00 0.385866106E+00 0.425125867E+00 0.460896760E+00 0.492566884E+00 0.519541681E+00 0.541826248E+00 0.559518576E+00 0.572757006E+00 0.581680417E+00 0.586401284E+00 0.586988389E+00 0.583456755E+00 0.575764358E+00 0.563814819E+00 0.547463000E+00 0.526530981E+00 0.500828564E+00 0.470186293E+00 0.434495956E+00 0.393772811E+00 0.348232806E+00 0.298389435E+00 0.245172501E+00 0.190062419E+00 0.135220215E+00 0.835768953E-01 0.388241448E-01 0.306518132E-06
0.652487576E-01 0.124037556E+00 0.180790797E+00 0.236219436E+00 0.289690822E+00 0.340288430E+00 0.387233466E+00 0.430008262E+00 0.468351513E+00 0.502206028E+00 0.531657100E+00 0.556874692E+00 0.578067124E+00 0.595444500E+00 0.609190643E+00 0.619443417E+00 0.626279950E+00 0.629706085E+00 0.629650354E+00 0.625960529E+00 0.618404031E+00 0.606673956E+00 0.590403020E+00 0.569190204E+00 0.542646408E+00 0.510630965E+00 0.473318934E+00 0.431202322E+00 0.385138065E+00 0.336352944E+00 0.286392361E+00 0.237008035E+00 0.189994171E+00 0.146995902E+00 0.109322876E+00 0.778054073E-01 0.527222380E-01 0.338158086E-01 0.203894209E-01 0.114627006E-01 0.594877917E-02 0.281468360E-02 0.119510037E-02 0.445951009E-03 0.142119738E-03 0.371101669E-04 0.743660985E-05 0.101536671E-05 0.707989258E-07 0.300365812E-07 0.443917457E-06 0.336105222E-05 0.173543867E-04 0.688246146E-04 0.223803843E-03 0.621947285E-03 0.151979248E-02 0.333411177E-02 0.667085405E-02 0.123235062E-01 0.212285183E-01 0.343744904E-01 0.526740514E-01 0.768187046E-01 0.107144609E+00 0.143537164E+00 0.185396612E+00 0.231672421E+00 0.280962706E+00 0.331657887E+00 0.382104069E+00 0.430756062E+00 0.476297796E+00 0.517715991E+00 0.554323554E+00 0.585739970E+00 0.611864448E+00 0.632939577E+00 0.649251640E+00 0.661077619E+00 0.668650687E+00 0.672137380E+00 0.671625018E+00 0.667114794E+00 0.658519924E+00 0.645669639E+00 0.628314018E+00 0.606141210E+00 0.578798056E+00 0.545926273E+00 0.507208824E+00 0.462443590E+00 0.411641687E+00 0.355156064E+00 0.293849945E+00 0.229300827E+00 0.164017990E+00 0.101627380E+00 0.469365306E-01 0.344846939E-06
0.798802152E-01 0.149280816E+00 0.214880347E+00 0.277912050E+00 0.337769955E+00 0.393510938E+00 0.444399178E+00 0.490036607E+00 0.530331612E+00 0.565419674E+00 0.595579982E+00 0.621164978E+00 0.642546833E+00 0.660077155E+00 0.674058437E+00 0.684724092E+00 0.692224443E+00 0.696617246E+00 0.697860897E+00 0.695810795E+00 0.690216243E+00 0.680721581E+00 0.666871607E+00 0.648127258E+00 0.623898447E+00 0.593551576E+00 0.556927383E+00 0.514181197E+00 0.465884477E+00 0.413089395E+00 0.357331514E+00 0.300550163E+00 0.244923338E+00 0.192635626E+00 0.145616516E+00 0.105301619E+00 0.724676400E-01 0.471788198E-01 0.288552660E-01 0.164433345E-01 0.864344463E-02 0.413914304E-02 0.177734985E-02 0.670219131E-03 0.215691194E-03 0.568363794E-04 0.114867207E-04 0.158085993E-05 0.111026040E-06 0.474073971E-07 0.696367465E-06 0.523349081E-05 0.268106469E-04 0.105437539E-03 0.339795544E-03 0.935244781E-03 0.226195180E-02 0.490794983E-02 0.970531255E-02 0.177075174E-01 0.301045626E-01 0.480780452E-01 0.726166815E-01 0.104327582E+00 0.143284708E+00 0.188950360E+00 0.240191087E+00 0.295385748E+00 0.352606595E+00 0.409834296E+00 0.465168387E+00 0.516995728E+00 0.564094841E+00 0.605670750E+00 0.641327262E+00 0.670997083E+00 0.695092559E+00 0.714079499E+00 0.728407443E+00 0.738465369E+00 0.744555712E+00 0.746878803E+00 0.745524943E+00 0.740469337E+00 0.731570959E+00 0.718575358E+00 0.701117873E+00 0.678739130E+00 0.650903702E+00 0.617036641E+00 0.576572418E+00 0.529037476E+00 0.474166393E+00 0.412064314E+00 0.343431026E+00 0.269850850E+00 0.194127679E+00 0.120609678E+00 0.553801954E-01 0.379537227E-06