<?xml version="1.0"?>
<VTKFile type="StructuredGrid">
<StructuredGrid WholeExtent="     0   100     0   100     0     0">
<Piece Extent="     0   100     0   100     0     0">
<Points>
<DataArray type="Float32" NumberOfComponents="3"/>
0.000000000E+00 0.000000000E+00 0.000000000E+00 0.199999996E-01 0.000000000E+00 0.000000000E+00 0.399999991E-01 0.000000000E+00 0.000000000E+00 0.599999987E-01 0.000000000E+00 0.000000000E+00 0.799999982E-01 0.000000000E+00 0.000000000E+00 0.100000001E+00 0.000000000E+00 0.000000000E+00 0.119999997E+00 0.000000000E+00 0.000000000E+00 0.140000001E+00 0.000000000E+00 0.000000000E+00 0.159999996E+00 0.000000000E+00 0.000000000E+00 0.180000007E+00 0.000000000E+00 0.000000000E+00 0.200000003E+00 0.000000000E+00 0.000000000E+00 0.219999999E+00 0.000000000E+00 0.000000000E+00 0.239999995E+00 0.000000000E+00 0.000000000E+00 0.259999990E+00 0.000000000E+00 0.000000000E+00 0.280000001E+00 0.000000000E+00 0.000000000E+00 0.300000012E+00 0.000000000E+00 0.000000000E+00 0.319999993E+00 0.000000000E+00 0.000000000E+00 0.340000004E+00 0.000000000E+00 0.000000000E+00 0.360000014E+00 0.000000000E+00 0.000000000E+00 0.379999995E+00 0.000000000E+00 0.000000000E+00 0.400000006E+00 0.000000000E+00 0.000000000E+00 0.419999987E+00 0.000000000E+00 0.000000000E+00 0.439999998E+00 0.000000000E+00 0.000000000E+00 0.460000008E+00 0.000000000E+00 0.000000000E+00 0.479999989E+00 0.000000000E+00 0.000000000E+00 0.500000000E+00 0.000000000E+00 0.000000000E+00 0.519999981E+00 0.000000000E+00 0.000000000E+00 0.540000021E+00 0.000000000E+00 0.000000000E+00 0.560000002E+00 0.000000000E+00 0.000000000E+00 0.579999983E+00 0.000000000E+00 0.000000000E+00 0.600000024E+00 0.000000000E+00 0.000000000E+00 0.620000005E+00 0.000000000E+00 0.000000000E+00 0.639999986E+00 0.000000000E+00 0.000000000E+00 0.660000026E+00 0.000000000E+00 0.000000000E+00 0.680000007E+00 0.000000000E+00 0.000000000E+00 0.699999988E+00 0.000000000E+00 0.000000000E+00 0.720000029E+00 0.000000000E+00 0.000000000E+00 0.740000010E+00 0.000000000E+00 0.000000000E+00 0.759999990E+00 0.000000000E+00 0.000000000E+00 0.779999971E+00 0.000000000E+00 0.000000000E+00 0.800000012E+00 0.000000000E+00 0.000000000E+00 0.819999993E+00 0.000000000E+00 0.000000000E+00 0.839999974E+00 0.000000000E+00 0.000000000E+00 0.860000014E+00 0.000000000E+00 0.000000000E+00 0.879999995E+00 0.000000000E+00 0.000000000E+00 0.899999976E+00 0.000000000E+00 0.000000000E+00 0.920000017E+00 0.000000000E+00 0.000000000E+00 0.939999998E+00 0.000000000E+00 0.000000000E+00 0.959999979E+00 0.000000000E+00 0.000000000E+00 0.980000019E+00 0.000000000E+00 0.000000000E+00 0.100000000E+01 0.000000000E+00 0.000000000E+00 0.101999998E+01 0.000000000E+00 0.000000000E+00 0.103999996E+01 0.000000000E+00 0.000000000E+00 0.105999994E+01 0.000000000E+00 0.000000000E+00 0.108000004E+01 0.000000000E+00 0.000000000E+00 0.110000002E+01 0.000000000E+00 0.000000000E+00 0.112000000E+01 0.000000000E+00 0.000000000E+00 0.113999999E+01 0.000000000E+00 0.000000000E+00 0.115999997E+01 0.000000000E+00 0.000000000E+00 0.117999995E+01 0.000000000E+00 0.000000000E+00 0.120000005E+01 0.000000000E+00 0.000000000E+00 0.122000003E+01 0.000000000E+00 0.000000000E+00 0.124000001E+01 0.000000000E+00 0.000000000E+00 0.125999999E+01 0.000000000E+00 0.000000000E+00 0.127999997E+01 0.000000000E+00 0.000000000E+00 0.129999995E+01 0.000000000E+00 0.000000000E+00 0.132000005E+01 0.000000000E+00 0.000000000E+00 0.134000003E+01 0.000000000E+00 0.000000000E+00 0.136000001E+01 0.000000000E+00 0.000000000E+00 0.138000000E+01 0.000000000E+00 0.000000000E+00 0.139999998E+01 0.000000000E+00 0.000000000E+00 0.141999996E+01 0.000000000E+00 0.000000000E+00 0.144000006E+01 0.000000000E+00 0.000000000E+00 0.146000004E+01 0.000000000E+00 0.000000000E+00 0.148000002E+01 0.000000000E+00 0.000000000E+00 0.150000000E+01 0.000000000E+00 0.000000000E+00 0.151999998E+01 0.000000000E+00 0.000000000E+00 0.153999996E+01 0.000000000E+00 0.000000000E+00 0.155999994E+01 0.000000000E+00 0.000000000E+00 0.158000004E+01 0.000000000E+00 0.000000000E+00 0.160000002E+01 0.000000000E+00 0.000000000E+00 0.162000000E+01 0.000000000E+00 0.000000000E+00 0.163999999E+01 0.000000000E+00 0.000000000E+00 0.165999997E+01 0.000000000E+00 0.000000000E+00 0.167999995E+01 0.000000000E+00 0.000000000E+00 0.170000005E+01 0.000000000E+00 0.000000000E+00 0.172000003E+01 0.000000000E+00 0.000000000E+00 0.174000001E+01 0.000000000E+00 0.000000000E+00 0.175999999E+01 0.000000000E+00 0.000000000E+00 0.177999997E+01 0.000000000E+00 0.000000000E+00 0.179999995E+01 0.000000000E+00 0.000000000E+00 0.182000005E+01 0.000000000E+00 0.000000000E+00 0.184000003E+01 0.000000000E+00 0.000000000E+00 0.186000001E+01 0.000000000E+00 0.000000000E+00 0.188000000E+01 0.000000000E+00 0.000000000E+00 0.189999998E+01 0.000000000E+00 0.000000000E+00 0.191999996E+01 0.000000000E+00 0.000000000E+00 0.194000006E+01 0.000000000E+00 0.000000000E+00 0.196000004E+01 0.000000000E+00 0.000000000E+00 0.198000002E+01 0.000000000E+00 0.000000000E+00 0.200000000E+01 0.000000000E+00 0.000000000E+00
0.000000000E+00 0.999999978E-02 0.000000000E+00 0.199999996E-01 0.999999978E-02 0.000000000E+00 0.399999991E-01 0.999999978E-02 0.000000000E+00 0.599999987E-01 0.999999978E-02 0.000000000E+00 0.799999982E-01 0.999999978E-02 0.000000000E+00 0.100000001E+00 0.999999978E-02 0.000000000E+00 0.119999997E+00 0.999999978E-02 0.000000000E+00 0.140000001E+00 0.999999978E-02 0.000000000E+00 0.159999996E+00 0.999999978E-02 0.000000000E+00 0.180000007E+00 0.999999978E-02 0.000000000E+00 0.200000003E+00 0.999999978E-02 0.000000000E+00 0.219999999E+00 0.999999978E-02 0.000000000E+00 0.239999995E+00 0.999999978E-02 0.000000000E+00 0.259999990E+00 0.999999978E-02 0.000000000E+00 0.280000001E+00 0.999999978E-02 0.000000000E+00 0.300000012E+00 0.999999978E-02 0.000000000E+00 0.319999993E+00 0.999999978E-02 0.000000000E+00 0.340000004E+00 0.999999978E-02 0.000000000E+00 0.360000014E+00 0.999999978E-02 0.000000000E+00 0.379999995E+00 0.999999978E-02 0.000000000E+00 0.400000006E+00 0.999999978E-02 0.000000000E+00 0.419999987E+00 0.999999978E-02 0.000000000E+00 0.439999998E+00 0.999999978E-02 0.000000000E+00 0.460000008E+00 0.999999978E-02 0.000000000E+00 0.479999989E+00 0.999999978E-02 0.000000000E+00 0.500000000E+00 0.999999978E-02 0.000000000E+00 0.519999981E+00 0.999999978E-02 0.000000000E+00 0.540000021E+00 0.999999978E-02 0.000000000E+00 0.560000002E+00 0.999999978E-02 0.000000000E+00 0.579999983E+00 0.999999978E-02 0.000000000E+00 0.600000024E+00 0.999999978E-02 0.000000000E+00 0.620000005E+00 0.999999978E-02 0.000000000E+00 0.639999986E+00 0.999999978E-02 0.000000000E+00 0.660000026E+00 0.999999978E-02 0.000000000E+00 0.680000007E+00 0.999999978E-02 0.000000000E+00 0.699999988E+00 0.999999978E-02 0.000000000E+00 0.720000029E+00 0.999999978E-02 0.000000000E+00 0.740000010E+00 0.999999978E-02 0.000000000E+00 0.759999990E+00 0.999999978E-02 0.000000000E+00 0.779999971E+00 0.999999978E-02 0.000000000E+00 0.800000012E+00 0.999999978E-02 0.000000000E+00 0.819999993E+00 0.999999978E-02 0.000000000E+00 0.839999974E+00 0.999999978E-02 0.000000000E+00 0.860000014E+00 0.999999978E-02 0.000000000E+00 0.879999995E+00 0.999999978E-02 0.000000000E+00 0.899999976E+00 0.999999978E-02 0.000000000E+00 0.920000017E+00 0.999999978E-02 0.000000000E+00 0.939999998E+00 0.999999978E-02 0.000000000E+00 0.959999979E+00 0.999999978E-02 0.000000000E+00 0.980000019E+00 0.999999978E-02 0.000000000E+00 0.100000000E+01 0.999999978E-02 0.000000000E+00 0.101999998E+01 0.999999978E-02 0.000000000E+00 0.103999996E+01 0.999999978E-02 0.000000000E+00 0.105999994E+01 0.999999978E-02 0.000000000E+00 0.108000004E+01 0.999999978E-02 0.000000000E+00 0.110000002E+01 0.999999978E-02 0.000000000E+00 0.112000000E+01 0.999999978E-02 0.000000000E+00 0.113999999E+01 0.999999978E-02 0.000000000E+00 0.115999997E+01 0.999999978E-02 0.000000000E+00 0.117999995E+01 0.999999978E-02 0.000000000E+00 0.120000005E+01 0.999999978E-02 0.000000000E+00 0.122000003E+01 0.999999978E-02 0.000000000E+00 0.124000001E+01 0.999999978E-02 0.000000000E+00 0.125999999E+01 0.999999978E-02 0.000000000E+00 0.127999997E+01 0.999999978E-02 0.000000000E+00 0.129999995E+01 0.999999978E-02 0.000000000E+00 0.132000005E+01 0.999999978E-02 0.000000000E+00 0.134000003E+01 0.999999978E-02 0.000000000E+00 0.136000001E+01 0.999999978E-02 0.000000000E+00 0.138000000E+01 0.999999978E-02 0.000000000E+00 0.139999998E+01 0.999999978E-02 0.000000000E+00 0.141999996E+01 0.999999978E-02 0.000000000E+00 0.144000006E+01 0.999999978E-02 0.000000000E+00 0.146000004E+01 0.999999978E-02 0.000000000E+00 0.148000002E+01 0.999999978E-02 0.000000000E+00 0.150000000E+01 0.999999978E-02 0.000000000E+00 0.151999998E+01 0.999999978E-02 0.000000000E+00 0.153999996E+01 0.999999978E-02 0.000000000E+00 0.155999994E+01 0.999999978E-02 0.000000000E+00 0.158000004E+01 0.999999978E-02 0.000000000E+00 0.160000002E+01 0.999999978E-02 0.000000000E+00 0.162000000E+01 0.999999978E-02 0.000000000E+00 0.163999999E+01 0.999999978E-02 0.000000000E+00 0.165999997E+01 0.999999978E-02 0.000000000E+00 0.167999995E+01 0.999999978E-02 0.000000000E+00 0.170000005E+01 0.999999978E-02 0.000000000E+00 0.172000003E+01 0.999999978E-02 0.000000000E+00 0.174000001E+01 0.999999978E-02 0.000000000E+00 0.175999999E+01 0.999999978E-02 0.000000000E+00 0.177999997E+01 0.999999978E-02 0.000000000E+00 0.179999995E+01 0.999999978E-02 0.000000000E+00 0.182000005E+01 0.999999978E-02 0.000000000E+00 0.184000003E+01 0.999999978E-02 0.000000000E+00 0.186000001E+01 0.999999978E-02 0.000000000E+00 0.188000000E+01 0.999999978E-02 0.000000000E+00 0.189999998E+01 0.999999978E-02 0.000000000E+00 0.191999996E+01 0.999999978E-02 0.000000000E+00 0.194000006E+01 0.999999978E-02 0.000000000E+00 0.196000004E+01 0.999999978E-02 0.000000000E+00 0.198000002E+01 0.999999978E-02 0.000000000E+00 0.200000000E+01 0.999999978E-02 0.000000000E+00
[...]
<CellData Scalars="Temperature, U, V">
<DataArray type="Float32" Name="Temp, K"/>
0.494360902E-04 0.117907926E-03 0.206473327E-03 0.313796074E-03 0.436442322E-03 0.569308351E-03 0.706130406E-03 0.840031600E-03 0.964066829E-03 0.107173249E-02 0.115741615E-02 0.121676247E-02 0.124694209E-02 0.124681136E-02 0.121695548E-02 0.115961826E-02 0.107851508E-02 0.978545402E-03 0.865421025E-03 0.745234371E-03 0.624001026E-03 0.507218007E-03 0.399476790E-03 0.304177200E-03 0.223372481E-03 0.161655218E-03 0.115132934E-03 0.805709351E-04 0.553044847E-04 0.371604183E-04 0.243869999E-04 0.155911293E-04 0.968192489E-05 0.582028406E-05 0.337388815E-05 0.187738442E-05 0.997493771E-06 0.502908961E-06 0.238817819E-06 0.105868807E-06 0.433387157E-07 0.161641012E-07 0.540018918E-08 0.158065072E-08 0.393387711E-09 0.797503244E-10 0.123170996E-10 0.130394859E-11 0.107529315E-10 0.151107061E-10 0.483059610E-12 0.441663633E-11 0.294649964E-10 0.149732546E-09 0.619662988E-09 0.217988916E-08 0.671656908E-08 0.185307467E-07 0.465635779E-07 0.108004116E-06 0.233769768E-06 0.476391193E-06 0.920856905E-06 0.169898397E-05 0.300789134E-05 0.513316354E-05 0.847735919E-05 0.135945129E-04 0.212314917E-04 0.323770437E-04 0.483197837E-04 0.707162908E-04 0.101671132E-03 0.143830781E-03 0.200493785E-03 0.275740313E-03 0.366011460E-03 0.469961000E-03 0.584884081E-03 0.706768420E-03 0.830484321E-03 0.950096699E-03 0.105926907E-02 0.115172018E-02 0.122169580E-02 0.126441801E-02 0.127647247E-02 0.125611993E-02 0.120349426E-02 0.112068444E-02 0.101167616E-02 0.882170047E-03 0.739259878E-03 0.590977492E-03 0.445735466E-03 0.311682437E-03 0.196002904E-03 0.104209837E-03 0.395015777E-04 0.492242969E-09
0.193130894E-03 0.453143643E-03 0.783836236E-03 0.118050980E-02 0.163138378E-02 0.211925455E-02 0.262325117E-02 0.312057720E-02 0.358814793E-02 0.400407566E-02 0.434895419E-02 0.460692216E-02 0.476648938E-02 0.482110539E-02 0.476947194E-02 0.461557414E-02 0.436843187E-02 0.404155813E-02 0.365213794E-02 0.321994023E-02 0.276601524E-02 0.231125508E-02 0.187492487E-02 0.147330528E-02 0.111860770E-02 0.835415267E-03 0.612887205E-03 0.441017182E-03 0.310733391E-03 0.213964537E-03 0.143670593E-03 0.938391677E-04 0.594498124E-04 0.364116204E-04 0.214783850E-04 0.121482590E-04 0.655430085E-05 0.335259961E-05 0.161404671E-05 0.724970846E-06 0.300572026E-06 0.113510623E-06 0.383954557E-07 0.113802558E-07 0.286900592E-08 0.589494564E-09 0.923482540E-10 0.981920708E-11 0.221487707E-10 0.307067878E-10 0.353278583E-11 0.336601649E-10 0.221391308E-09 0.111019072E-08 0.453702453E-08 0.157687960E-07 0.480158029E-07 0.130930204E-06 0.325131168E-06 0.745067098E-06 0.159254228E-05 0.320295362E-05 0.610572079E-05 0.110995843E-04 0.193424876E-04 0.324546891E-04 0.526328367E-04 0.827715048E-04 0.126588391E-03 0.188747901E-03 0.274978782E-03 0.392179500E-03 0.548506971E-03 0.753443514E-03 0.101783802E-02 0.135391997E-02 0.174121140E-02 0.216999813E-02 0.262607564E-02 0.309151411E-02 0.354577880E-02 0.396708818E-02 0.433387188E-02 0.462620519E-02 0.482713059E-02 0.492379535E-02 0.490831910E-02 0.477843452E-02 0.453779520E-02 0.419601053E-02 0.376831507E-02 0.327497628E-02 0.274033379E-02 0.219149655E-02 0.165673916E-02 0.116360607E-02 0.736766495E-03 0.395718584E-03 0.152538269E-03 0.180939363E-08
0.589614268E-03 0.136365008E-02 0.233323267E-02 0.348496530E-02 0.478616729E-02 0.619015237E-02 0.764124468E-02 0.907934271E-02 0.104439296E-01 0.116775073E-01 0.127284583E-01 0.135533409E-01 0.141187226E-01 0.144025274E-01 0.143949147E-01 0.140987411E-01 0.135295019E-01 0.127147473E-01 0.116929067E-01 0.105114598E-01 0.922441483E-02 0.788916461E-02 0.656282809E-02 0.529831741E-02 0.414054701E-02 0.317711872E-02 0.239058817E-02 0.176133495E-02 0.126862759E-02 0.891610980E-03 0.610166753E-03 0.405606173E-03 0.261179695E-03 0.162391880E-03 0.971334957E-04 0.556514315E-04 0.303866418E-04 0.157174763E-04 0.764659580E-05 0.346888396E-05 0.145199806E-05 0.553481641E-06 0.188960627E-06 0.565356864E-07 0.143919214E-07 0.298749780E-08 0.473160899E-09 0.507685803E-10 0.355971468E-10 0.473131881E-10 0.183052306E-10 0.174885759E-09 0.113768861E-08 0.564748071E-08 0.228615278E-07 0.787419339E-07 0.237672126E-06 0.642471207E-06 0.158142961E-05 0.359129058E-05 0.760378089E-05 0.151401464E-04 0.285532969E-04 0.513110317E-04 0.883070534E-04 0.146179387E-03 0.233610946E-03 0.361580256E-03 0.543531729E-03 0.795429805E-03 0.113566930E-02 0.158481766E-02 0.216517132E-02 0.290012429E-02 0.381335779E-02 0.492787408E-02 0.616735360E-02 0.749290455E-02 0.885560922E-02 0.101997163E-01 0.114662889E-01 0.125969406E-01 0.135373408E-01 0.142403161E-01 0.146684116E-01 0.147959031E-01 0.146101452E-01 0.141125061E-01 0.133186346E-01 0.122582968E-01 0.109745124E-01 0.952226762E-02 0.796646345E-02 0.637907488E-02 0.483555952E-02 0.341040571E-02 0.217178278E-02 0.117543875E-02 0.458229013E-03 0.516358689E-08
0.142133876E-02 0.324088009E-02 0.548534188E-02 0.812388305E-02 0.110834837E-01 0.142626269E-01 0.175430365E-01 0.207993817E-01 0.239071343E-01 0.267487075E-01 0.292182676E-01 0.312253293E-01 0.326975584E-01 0.335828215E-01 0.338507481E-01 0.334938504E-01 0.325281173E-01 0.309930723E-01 0.289510917E-01 0.264857244E-01 0.236987825E-01 0.207059216E-01 0.176306572E-01 0.145968879E-01 0.117203631E-01 0.922820996E-02 0.711579062E-02 0.536570698E-02 0.395021494E-02 0.283403788E-02 0.197731215E-02 0.133842963E-02 0.876559003E-03 0.553688849E-03 0.336097699E-03 0.195224202E-03 0.107969579E-03 0.565200353E-04 0.278081352E-04 0.127499743E-04 0.539121220E-05 0.207523772E-05 0.715297858E-06 0.216054943E-06 0.555307480E-07 0.116417755E-07 0.186303106E-08 0.201955633E-09 0.554591859E-10 0.665233979E-10 0.735397784E-10 0.697663982E-09 0.449210580E-08 0.220838672E-07 0.885726266E-07 0.302327379E-06 0.904392778E-06 0.242270585E-05 0.590827676E-05 0.132880359E-04 0.278495609E-04 0.548561293E-04 0.102267666E-03 0.181517084E-03 0.308265589E-03 0.503039220E-03 0.791636703E-03 0.120519404E-02 0.177981006E-02 0.255565252E-02 0.357551756E-02 0.488285301E-02 0.651930971E-02 0.852197129E-02 0.109204240E-01 0.137338843E-01 0.167570785E-01 0.198836625E-01 0.229934044E-01 0.259602070E-01 0.286598317E-01 0.309767406E-01 0.328097232E-01 0.340762734E-01 0.347157344E-01 0.346915796E-01 0.339925922E-01 0.326337442E-01 0.306562018E-01 0.281270295E-01 0.251378864E-01 0.218033381E-01 0.182578657E-01 0.146513907E-01 0.111432057E-01 0.789382961E-02 0.505437935E-02 0.275346776E-02 0.108212919E-02 0.115238779E-07
0.289680855E-02 0.651226006E-02 0.109029431E-01 0.160077624E-01 0.216861889E-01 0.277488977E-01 0.339815840E-01 0.401628762E-01 0.460773297E-01 0.515245423E-01 0.563254505E-01 0.603263639E-01 0.634018406E-01 0.654565543E-01 0.664268211E-01 0.662821084E-01 0.650263652E-01 0.626993775E-01 0.593777671E-01 0.551752374E-01 0.502413549E-01 0.447583608E-01 0.389348865E-01 0.329963267E-01 0.271715913E-01 0.219221786E-01 0.173052717E-01 0.133458758E-01 0.100384438E-01 0.735067530E-02 0.522899395E-02 0.360499974E-02 0.240219268E-02 0.154230127E-02 0.950648042E-03 0.560184941E-03 0.314021221E-03 0.166480779E-03 0.828924385E-04 0.384369268E-04 0.164278117E-04 0.638881784E-05 0.222411290E-05 0.678370213E-06 0.176054101E-06 0.372722297E-07 0.602493788E-08 0.659833521E-09 0.928674915E-10 0.924267884E-10 0.243009640E-09 0.228440289E-08 0.145644581E-07 0.709257009E-07 0.281843967E-06 0.953228948E-06 0.282523047E-05 0.749690525E-05 0.181042069E-04 0.403013037E-04 0.835550818E-04 0.162701268E-03 0.299635518E-03 0.524936186E-03 0.879152503E-03 0.141345582E-02 0.218936196E-02 0.327727431E-02 0.475371955E-02 0.669725332E-02 0.918321963E-02 0.122776860E-01 0.160310399E-01 0.204718504E-01 0.256016459E-01 0.313912109E-01 0.374094956E-01 0.434355848E-01 0.492404550E-01 0.546009317E-01 0.593111403E-01 0.631909817E-01 0.660920143E-01 0.679010153E-01 0.685421005E-01 0.679777861E-01 0.662092716E-01 0.632770360E-01 0.592608601E-01 0.542800687E-01 0.484929048E-01 0.420957543E-01 0.353205502E-01 0.284296963E-01 0.217081103E-01 0.154509600E-01 0.994580518E-02 0.544845127E-02 0.215274515E-02 0.215761542E-07
0.521278055E-02 0.115529392E-01 0.191309825E-01 0.278388429E-01 0.374339297E-01 0.476005077E-01 0.579930544E-01 0.682658553E-01 0.780918747E-01 0.871741474E-01 0.952519402E-01 0.102103323E+00 0.107546039E+00 0.111437365E+00 0.113674089E+00 0.114193067E+00 0.112972729E+00 0.110035561E+00 0.105451427E+00 0.993414894E-01 0.918813050E-01 0.833025575E-01 0.738909841E-01 0.639793500E-01 0.539335348E-01 0.445242338E-01 0.359430648E-01 0.283285026E-01 0.217603315E-01 0.162594039E-01 0.117925676E-01 0.828186795E-02 0.561661739E-02 0.366680790E-02 0.229615439E-02 0.137338869E-02 0.780788308E-03 0.419469667E-03 0.211488601E-03 0.992335117E-04 0.428906751E-04 0.168597671E-04 0.592999140E-05 0.182682436E-05 0.478772108E-06 0.102352310E-06 0.167083076E-07 0.184818649E-08 0.172148143E-09 0.134063080E-09 0.688409163E-09 0.641054276E-08 0.404831582E-07 0.195312623E-06 0.768969642E-06 0.257656097E-05 0.756404461E-05 0.198748185E-04 0.475049892E-04 0.104614861E-03 0.214437256E-03 0.412550318E-03 0.750092498E-03 0.129633257E-02 0.213991059E-02 0.338807283E-02 0.516338134E-02 0.759760151E-02 0.108229145E-01 0.149609158E-01 0.201104023E-01 0.263351146E-01 0.336529352E-01 0.420279093E-01 0.513662659E-01 0.615172423E-01 0.717377588E-01 0.816577896E-01 0.909224153E-01 0.992091298E-01 0.106239170E+00 0.111783430E+00 0.115664810E+00 0.117758065E+00 0.117988445E+00 0.116330788E+00 0.112808302E+00 0.107493497E+00 0.100509241E+00 0.920314416E-01 0.822910741E-01 0.715770349E-01 0.602366887E-01 0.486729108E-01 0.373363793E-01 0.267102756E-01 0.172841605E-01 0.951448735E-02 0.377066177E-02 0.354621399E-07
0.853088684E-02 0.186360292E-01 0.305194966E-01 0.440066792E-01 0.587121360E-01 0.741520748E-01 0.898169950E-01 0.105215944E+00 0.119901143E+00 0.133479461E+00 0.145615608E+00 0.156030178E+00 0.164495841E+00 0.170832559E+00 0.174903914E+00 0.176614657E+00 0.175910935E+00 0.172782794E+00 0.167269334E+00 0.159466624E+00 0.149536908E+00 0.137718379E+00 0.124332592E+00 0.109786883E+00 0.945678651E-01 0.797661692E-01 0.657778531E-01 0.529395752E-01 0.415063761E-01 0.316375941E-01 0.233925600E-01 0.167363100E-01 0.115541369E-01 0.767248170E-02 0.488291122E-02 0.296581280E-02 0.171081186E-02 0.931845803E-03 0.475965877E-03 0.226091433E-03 0.988651154E-04 0.392947877E-04 0.139677204E-04 0.434692720E-05 0.115053581E-05 0.248356855E-06 0.409348395E-07 0.457199079E-08 0.340129092E-09 0.209065501E-09 0.172165504E-08 0.158842983E-07 0.993858933E-07 0.475095703E-06 0.185323051E-05 0.615103363E-05 0.178821610E-04 0.465109115E-04 0.109993030E-03 0.239523099E-03 0.485183467E-03 0.921790837E-03 0.165385369E-02 0.281829294E-02 0.458355015E-02 0.714395521E-02 0.107088266E-01 0.154864723E-01 0.216643587E-01 0.293872934E-01 0.387364328E-01 0.497117676E-01 0.622209646E-01 0.760763362E-01 0.910008699E-01 0.106642984E+00 0.121916190E+00 0.136302933E+00 0.149343103E+00 0.160647601E+00 0.169902548E+00 0.176867247E+00 0.181368694E+00 0.183295012E+00 0.182589784E+00 0.179248825E+00 0.173318058E+00 0.164896190E+00 0.154138833E+00 0.141266003E+00 0.126569673E+00 0.110424116E+00 0.932936296E-01 0.757360682E-01 0.583998300E-01 0.420087166E-01 0.273284931E-01 0.151086086E-01 0.599442003E-02 0.528000861E-07
0.129672056E-01 0.279149786E-01 0.452043116E-01 0.645735636E-01 0.854493231E-01 0.107138328E+00 0.128940567E+00 0.150210455E+00 0.170385033E+00 0.188991651E+00 0.205644205E+00 0.220032990E+00 0.231912896E+00 0.241091609E+00 0.247419640E+00 0.250783443E+00 0.251102060E+00 0.248328015E+00 0.242452726E+00 0.233516961E+00 0.221625790E+00 0.206967354E+00 0.189832956E+00 0.170635164E+00 0.149918213E+00 0.129013270E+00 0.108553261E+00 0.891387165E-01 0.712910891E-01 0.554131083E-01 0.417617299E-01 0.304377154E-01 0.213927310E-01 0.144523410E-01 0.935044792E-02 0.576918060E-02 0.337792211E-02 0.186607917E-02 0.965983898E-03 0.464696524E-03 0.205646895E-03 0.826675314E-04 0.297032202E-04 0.933964111E-05 0.249660047E-05 0.544127943E-06 0.905349253E-07 0.102068700E-07 0.677911227E-09 0.348389817E-09 0.388385590E-08 0.355130751E-07 0.220208321E-06 0.104315052E-05 0.403155263E-05 0.132538898E-04 0.381506434E-04 0.982019919E-04 0.229709185E-03 0.494474545E-03 0.989457942E-03 0.185571273E-02 0.328428065E-02 0.551648764E-02 0.883642677E-02 0.135543430E-01 0.199812111E-01 0.283963624E-01 0.390120111E-01 0.519392490E-01 0.671610013E-01 0.845163316E-01 0.103699312E+00 0.124273270E+00 0.145699084E+00 0.167373523E+00 0.187921464E+00 0.206727475E+00 0.223287448E+00 0.237208754E+00 0.248200014E+00 0.256056309E+00 0.260643631E+00 0.261885345E+00 0.259752572E+00 0.254259467E+00 0.245462298E+00 0.233465359E+00 0.218430102E+00 0.200590119E+00 0.180267662E+00 0.157895148E+00 0.134035483E+00 0.109398112E+00 0.848471969E-01 0.613933057E-01 0.401565433E-01 0.222884268E-01 0.883983634E-02 0.728555349E-07
0.185922869E-01 0.394303240E-01 0.631291941E-01 0.893213451E-01 0.117198519E+00 0.145820424E+00 0.174280107E+00 0.201782227E+00 0.227670118E+00 0.251424104E+00 0.272645652E+00 0.291034907E+00 0.306368023E+00 0.318476260E+00 0.327228010E+00 0.332516372E+00 0.334250599E+00 0.332353711E+00 0.326766014E+00 0.317455679E+00 0.304436773E+00 0.287794799E+00 0.267719269E+00 0.244539768E+00 0.218759969E+00 0.191788912E+00 0.164465755E+00 0.137668148E+00 0.112241283E+00 0.889252871E-01 0.682916641E-01 0.506993756E-01 0.362773351E-01 0.249358732E-01 0.164038111E-01 0.102834692E-01 0.611310964E-02 0.342607987E-02 0.179788179E-02 0.876114820E-03 0.392467919E-03 0.159594056E-03 0.579720872E-04 0.184180080E-04 0.497228530E-05 0.109405289E-05 0.183722122E-06 0.209009396E-07 0.131382538E-08 0.601682149E-09 0.803249467E-08 0.728157232E-07 0.447580760E-06 0.210139251E-05 0.804700176E-05 0.262027079E-04 0.746705628E-04 0.190188512E-03 0.439949246E-03 0.935941760E-03 0.184962898E-02 0.342348428E-02 0.597513048E-02 0.988999009E-02 0.155996811E-01 0.235457737E-01 0.341317207E-01 0.476685874E-01 0.643227994E-01 0.840744600E-01 0.106694371E+00 0.131744400E+00 0.158602491E+00 0.186508939E+00 0.214627117E+00 0.242109343E+00 0.267434478E+00 0.289979994E+00 0.309285879E+00 0.325032026E+00 0.337009579E+00 0.345091373E+00 0.349207640E+00 0.349326789E+00 0.345443785E+00 0.337576300E+00 0.325765997E+00 0.310089678E+00 0.290674806E+00 0.267723799E+00 0.241542041E+00 0.212574661E+00 0.181444824E+00 0.148989707E+00 0.116289236E+00 0.846744105E-01 0.556959026E-01 0.310289245E-01 0.122879473E-01 0.947472429E-07
0.254371576E-01 0.531293154E-01 0.840880424E-01 0.117825285E+00 0.153252229E+00 0.189151645E+00 0.224406824E+00 0.258093566E+00 0.289498746E+00 0.318101496E+00 0.343539745E+00 0.365571260E+00 0.384038210E+00 0.398835510E+00 0.409885168E+00 0.417117119E+00 0.420456201E+00 0.419814527E+00 0.415092051E+00 0.406184345E+00 0.392999709E+00 0.375487715E+00 0.353679180E+00 0.327737838E+00 0.298018873E+00 0.265799284E+00 0.232027203E+00 0.197799906E+00 0.164280623E+00 0.132596061E+00 0.103728794E+00 0.784235969E-01 0.571240745E-01 0.399508290E-01 0.267240014E-01 0.170239359E-01 0.102762114E-01 0.584377162E-02 0.310921832E-02 0.153503008E-02 0.696155068E-03 0.286390947E-03 0.105176063E-03 0.337625934E-04 0.920478124E-05 0.204438652E-05 0.346412804E-06 0.397544220E-07 0.243551312E-08 0.104250053E-08 0.154231063E-07 0.138659601E-06 0.845112709E-06 0.393324808E-05 0.149253174E-04 0.481382631E-04 0.135808397E-03 0.342251209E-03 0.782841642E-03 0.164565549E-02 0.321134832E-02 0.586500950E-02 0.100931572E-01 0.164603535E-01 0.255632922E-01 0.379649587E-01 0.541169606E-01 0.742818639E-01 0.984698981E-01 0.126402453E+00 0.157511204E+00 0.190974325E+00 0.225785047E+00 0.260840923E+00 0.295039207E+00 0.327363491E+00 0.356348127E+00 0.381474197E+00 0.402416885E+00 0.418996841E+00 0.431132883E+00 0.438801110E+00 0.442004353E+00 0.440751314E+00 0.435045451E+00 0.424883902E+00 0.410261601E+00 0.391188592E+00 0.367711872E+00 0.339950085E+00 0.308134049E+00 0.272662014E+00 0.234161139E+00 0.193551660E+00 0.152107745E+00 0.111496635E+00 0.737670362E-01 0.412462056E-01 0.162960608E-01 0.117611300E-06
0.335015394E-01 0.688892230E-01 0.107770935E+00 0.149530068E+00 0.192755535E+00 0.235934690E+00 0.277754486E+00 0.317199707E+00 0.353552014E+00 0.386345267E+00 0.415307999E+00 0.440305382E+00 0.461289227E+00 0.478256315E+00 0.491215587E+00 0.500163436E+00 0.505066514E+00 0.505849898E+00 0.502393544E+00 0.494535387E+00 0.482084453E+00 0.464846253E+00 0.442664415E+00 0.415480107E+00 0.383409262E+00 0.347389638E+00 0.308333606E+00 0.267434150E+00 0.226092517E+00 0.185801551E+00 0.147999585E+00 0.113918684E+00 0.844556913E-01 0.600913651E-01 0.408724323E-01 0.264581610E-01 0.162182227E-01 0.935869105E-02 0.504888454E-02 0.252552517E-02 0.115958776E-02 0.482616946E-03 0.179186318E-03 0.581150161E-04 0.159984011E-04 0.358601596E-05 0.612968677E-06 0.709364656E-07 0.429856284E-08 0.177235171E-08 0.277683725E-07 0.247680276E-06 0.149727111E-05 0.690924935E-05 0.259843637E-04 0.830180288E-04 0.231877610E-03 0.578176638E-03 0.130763417E-02 0.271610264E-02 0.523332413E-02 0.943029206E-02 0.160005223E-01 0.257092547E-01 0.393113717E-01 0.574469790E-01 0.805313513E-01 0.108659700E+00 0.141547590E+00 0.178520948E+00 0.218560845E+00 0.260396242E+00 0.302628070E+00 0.343862772E+00 0.382832289E+00 0.418482900E+00 0.449619383E+00 0.475929022E+00 0.497294456E+00 0.513720751E+00 0.525275469E+00 0.532041728E+00 0.534087300E+00 0.531444848E+00 0.524104416E+00 0.512015045E+00 0.495093018E+00 0.473242819E+00 0.446385682E+00 0.414502800E+00 0.377688795E+00 0.336226761E+00 0.290677369E+00 0.241979629E+00 0.191556901E+00 0.141405597E+00 0.941242129E-01 0.528201908E-01 0.208081305E-01 0.140699171E-06
0.427618697E-01 0.865391493E-01 0.133805290E+00 0.183814809E+00 0.234799430E+00 0.284947038E+00 0.332779795E+00 0.377245724E+00 0.417683870E+00 0.453744411E+00 0.485301226E+00 0.512372792E+00 0.535058439E+00 0.553487539E+00 0.567781925E+00 0.578027606E+00 0.584254861E+00 0.586424410E+00 0.584419549E+00 0.578044415E+00 0.567030609E+00 0.551055849E+00 0.529779017E+00 0.502898455E+00 0.470237404E+00 0.432234108E+00 0.389606535E+00 0.343477130E+00 0.295340121E+00 0.246958658E+00 0.200199291E+00 0.156828061E+00 0.118305303E+00 0.856218413E-01 0.592097752E-01 0.389457755E-01 0.242412146E-01 0.141939959E-01 0.776419509E-02 0.393486628E-02 0.182905106E-02 0.770091079E-03 0.289033225E-03 0.946975633E-04 0.263184866E-04 0.595227721E-05 0.102607362E-05 0.119699990E-06 0.722908133E-08 0.292242541E-08 0.472570960E-07 0.418346843E-06 0.250914445E-05 0.114830509E-04 0.428085696E-04 0.135502298E-03 0.374738214E-03 0.924577413E-03 0.206768769E-02 0.424376549E-02 0.807370525E-02 0.143546667E-01 0.240138993E-01 0.380171165E-01 0.572388023E-01 0.823139846E-01 0.113500267E+00 0.150580123E+00 0.192828849E+00 0.239058211E+00 0.287731290E+00 0.337126017E+00 0.385516375E+00 0.431337714E+00 0.473308980E+00 0.510497630E+00 0.542160392E+00 0.568263888E+00 0.588936150E+00 0.604379833E+00 0.614806473E+00 0.620392084E+00 0.621249855E+00 0.617415428E+00 0.608842731E+00 0.595409036E+00 0.576924801E+00 0.553157985E+00 0.523865342E+00 0.488842428E+00 0.447988063E+00 0.401399225E+00 0.349489987E+00 0.293136567E+00 0.233842984E+00 0.173900872E+00 0.116488092E+00 0.656125769E-01 0.257628392E-01 0.163417695E-06