<?xml version="1.0"?>
<VTKFile type="StructuredGrid">
<StructuredGrid WholeExtent="     0   100     0   100     0     0">
<Piece Extent="     0   100     0   100     0     0">
<Points>
<DataArray type="Float32" NumberOfComponents="3"/>
0.000000000E+00 0.000000000E+00 0.000000000E+00 0.199999996E-01 0.000000000E+00 0.000000000E+00 0.399999991E-01 0.000000000E+00 0.000000000E+00 0.599999987E-01 0.000000000E+00 0.000000000E+00 0.799999982E-01 0.000000000E+00 0.000000000E+00 0.100000001E+00 0.000000000E+00 0.000000000E+00 0.119999997E+00 0.000000000E+00 0.000000000E+00 0.140000001E+00 0.000000000E+00 0.000000000E+00 0.159999996E+00 0.000000000E+00 0.000000000E+00 0.180000007E+00 0.000000000E+00 0.000000000E+00 0.200000003E+00 0.000000000E+00 0.000000000E+00 0.219999999E+00 0.000000000E+00 0.000000000E+00 0.239999995E+00 0.000000000E+00 0.000000000E+00 0.259999990E+00 0.000000000E+00 0.000000000E+00 0.280000001E+00 0.000000000E+00 0.000000000E+00 0.300000012E+00 0.000000000E+00 0.000000000E+00 0.319999993E+00 0.000000000E+00 0.000000000E+00 0.340000004E+00 0.000000000E+00 0.000000000E+00 0.360000014E+00 0.000000000E+00 0.000000000E+00 0.379999995E+00 0.000000000E+00 0.000000000E+00 0.400000006E+00 0.000000000E+00 0.000000000E+00 0.419999987E+00 0.000000000E+00 0.000000000E+00 0.439999998E+00 0.000000000E+00 0.000000000E+00 0.460000008E+00 0.000000000E+00 0.000000000E+00 0.479999989E+00 0.000000000E+00 0.000000000E+00 0.500000000E+00 0.000000000E+00 0.000000000E+00 0.519999981E+00 0.000000000E+00 0.000000000E+00 0.540000021E+00 0.000000000E+00 0.000000000E+00 0.560000002E+00 0.000000000E+00 0.000000000E+00 0.579999983E+00 0.000000000E+00 0.000000000E+00 0.600000024E+00 0.000000000E+00 0.000000000E+00 0.620000005E+00 0.000000000E+00 0.000000000E+00 0.639999986E+00 0.000000000E+00 0.000000000E+00 0.660000026E+00 0.000000000E+00 0.000000000E+00 0.680000007E+00 0.000000000E+00 0.000000000E+00 0.699999988E+00 0.000000000E+00 0.000000000E+00 0.720000029E+00 0.000000000E+00 0.000000000E+00 0.740000010E+00 0.000000000E+00 0.000000000E+00 0.759999990E+00 0.000000000E+00 0.000000000E+00 0.779999971E+00 0.000000000E+00 0.000000000E+00 0.800000012E+00 0.000000000E+00 0.000000000E+00 0.819999993E+00 0.000000000E+00 0.000000000E+00 0.839999974E+00 0.000000000E+00 0.000000000E+00 0.860000014E+00 0.000000000E+00 0.000000000E+00 0.879999995E+00 0.000000000E+00 0.000000000E+00 0.899999976E+00 0.000000000E+00 0.000000000E+00 0.920000017E+00 0.000000000E+00 0.000000000E+00 0.939999998E+00 0.000000000E+00 0.000000000E+00 0.959999979E+00 0.000000000E+00 0.000000000E+00 0.980000019E+00 0.000000000E+00 0.000000000E+00 0.100000000E+01 0.000000000E+00 0.000000000E+00 0.101999998E+01 0.000000000E+00 0.000000000E+00 0.103999996E+01 0.000000000E+00 0.000000000E+00 0.105999994E+01 0.000000000E+00 0.000000000E+00 0.108000004E+01 0.000000000E+00 0.000000000E+00 0.110000002E+01 0.000000000E+00 0.000000000E+00 0.112000000E+01 0.000000000E+00 0.000000000E+00 0.113999999E+01 0.000000000E+00 0.000000000E+00 0.115999997E+01 0.000000000E+00 0.000000000E+00 0.117999995E+01 0.000000000E+00 0.000000000E+00 0.120000005E+01 0.000000000E+00 0.000000000E+00 0.122000003E+01 0.000000000E+00 0.000000000E+00 0.124000001E+01 0.000000000E+00 0.000000000E+00 0.125999999E+01 0.000000000E+00 0.000000000E+00 0.127999997E+01 0.000000000E+00 0.000000000E+00 0.129999995E+01 0.000000000E+00 0.000000000E+00 0.132000005E+01 0.000000000E+00 0.000000000E+00 0.134000003E+01 0.000000000E+00 0.000000000E+00 0.136000001E+01 0.000000000E+00 0.000000000E+00 0.138000000E+01 0.000000000E+00 0.000000000E+00 0.139999998E+01 0.000000000E+00 0.000000000E+00 0.141999996E+01 0.000000000E+00 0.000000000E+00 0.144000006E+01 0.000000000E+00 0.000000000E+00 0.146000004E+01 0.000000000E+00 0.000000000E+00 0.148000002E+01 0.000000000E+00 0.000000000E+00 0.150000000E+01 0.000000000E+00 0.000000000E+00 0.151999998E+01 0.000000000E+00 0.000000000E+00 0.153999996E+01 0.000000000E+00 0.000000000E+00 0.155999994E+01 0.000000000E+00 0.000000000E+00 0.158000004E+01 0.000000000E+00 0.000000000E+00 0.160000002E+01 0.000000000E+00 0.000000000E+00 0.162000000E+01 0.000000000E+00 0.000000000E+00 0.163999999E+01 0.000000000E+00 0.000000000E+00 0.165999997E+01 0.000000000E+00 0.000000000E+00 0.167999995E+01 0.000000000E+00 0.000000000E+00 0.170000005E+01 0.000000000E+00 0.000000000E+00 0.172000003E+01 0.000000000E+00 0.000000000E+00 0.174000001E+01 0.000000000E+00 0.000000000E+00 0.175999999E+01 0.000000000E+00 0.000000000E+00 0.177999997E+01 0.000000000E+00 0.000000000E+00 0.179999995E+01 0.000000000E+00 0.000000000E+00 0.182000005E+01 0.000000000E+00 0.000000000E+00 0.184000003E+01 0.000000000E+00 0.000000000E+00 0.186000001E+01 0.000000000E+00 0.000000000E+00 0.188000000E+01 0.000000000E+00 0.000000000E+00 0.189999998E+01 0.000000000E+00 0.000000000E+00 0.191999996E+01 0.000000000E+00 0.000000000E+00 0.194000006E+01 0.000000000E+00 0.000000000E+00 0.196000004E+01 0.000000000E+00 0.000000000E+00 0.198000002E+01 0.000000000E+00 0.000000000E+00 0.200000000E+01 0.000000000E+00 0.000000000E+00
0.000000000E+00 0.999999978E-02 0.000000000E+00 0.199999996E-01 0.999999978E-02 0.000000000E+00 0.399999991E-01 0.999999978E-02 0.000000000E+00 0.599999987E-01 0.999999978E-02 0.000000000E+00 0.799999982E-01 0.999999978E-02 0.000000000E+00 0.100000001E+00 0.999999978E-02 0.000000000E+00 0.119999997E+00 0.999999978E-02 0.000000000E+00 0.140000001E+00 0.999999978E-02 0.000000000E+00 0.159999996E+00 0.999999978E-02 0.000000000E+00 0.180000007E+00 0.999999978E-02 0.000000000E+00 0.200000003E+00 0.999999978E-02 0.000000000E+00 0.219999999E+00 0.999999978E-02 0.000000000E+00 0.239999995E+00 0.999999978E-02 0.000000000E+00 0.259999990E+00 0.999999978E-02 0.000000000E+00 0.280000001E+00 0.999999978E-02 0.000000000E+00 0.300000012E+00 0.999999978E-02 0.000000000E+00 0.319999993E+00 0.999999978E-02 0.000000000E+00 0.340000004E+00 0.999999978E-02 0.000000000E+00 0.360000014E+00 0.999999978E-02 0.000000000E+00 0.379999995E+00 0.999999978E-02 0.000000000E+00 0.400000006E+00 0.999999978E-02 0.000000000E+00 0.419999987E+00 0.999999978E-02 0.000000000E+00 0.439999998E+00 0.999999978E-02 0.000000000E+00 0.460000008E+00 0.999999978E-02 0.000000000E+00 0.479999989E+00 0.999999978E-02 0.000000000E+00 0.500000000E+00 0.999999978E-02 0.000000000E+00 0.519999981E+00 0.999999978E-02 0.000000000E+00 0.540000021E+00 0.999999978E-02 0.000000000E+00 0.560000002E+00 0.999999978E-02 0.000000000E+00 0.579999983E+00 0.999999978E-02 0.000000000E+00 0.600000024E+00 0.999999978E-02 0.000000000E+00 0.620000005E+00 0.999999978E-02 0.000000000E+00 0.639999986E+00 0.999999978E-02 0.000000000E+00 0.660000026E+00 0.999999978E-02 0.000000000E+00 0.680000007E+00 0.999999978E-02 0.000000000E+00 0.699999988E+00 0.999999978E-02 0.000000000E+00 0.720000029E+00 0.999999978E-02 0.000000000E+00 0.740000010E+00 0.999999978E-02 0.000000000E+00 0.759999990E+00 0.999999978E-02 0.000000000E+00 0.779999971E+00 0.999999978E-02 0.000000000E+00 0.800000012E+00 0.999999978E-02 0.000000000E+00 0.819999993E+00 0.999999978E-02 0.000000000E+00 0.839999974E+00 0.999999978E-02 0.000000000E+00 0.860000014E+00 0.999999978E-02 0.000000000E+00 0.879999995E+00 0.999999978E-02 0.000000000E+00 0.899999976E+00 0.999999978E-02 0.000000000E+00 0.920000017E+00 0.999999978E-02 0.000000000E+00 0.939999998E+00 0.999999978E-02 0.000000000E+00 0.959999979E+00 0.999999978E-02 0.000000000E+00 0.980000019E+00 0.999999978E-02 0.000000000E+00 0.100000000E+01 0.999999978E-02 0.000000000E+00 0.101999998E+01 0.999999978E-02 0.000000000E+00 0.103999996E+01 0.999999978E-02 0.000000000E+00 0.105999994E+01 0.999999978E-02 0.000000000E+00 0.108000004E+01 0.999999978E-02 0.000000000E+00 0.110000002E+01 0.999999978E-02 0.000000000E+00 0.112000000E+01 0.999999978E-02 0.000000000E+00 0.113999999E+01 0.999999978E-02 0.000000000E+00 0.115999997E+01 0.999999978E-02 0.000000000E+00 0.117999995E+01 0.999999978E-02 0.000000000E+00 0.120000005E+01 0.999999978E-02 0.000000000E+00 0.122000003E+01 0.999999978E-02 0.000000000E+00 0.124000001E+01 0.999999978E-02 0.000000000E+00 0.125999999E+01 0.999999978E-02 0.000000000E+00 0.127999997E+01 0.999999978E-02 0.000000000E+00 0.129999995E+01 0.999999978E-02 0.000000000E+00 0.132000005E+01 0.999999978E-02 0.000000000E+00 0.134000003E+01 0.999999978E-02 0.000000000E+00 0.136000001E+01 0.999999978E-02 0.000000000E+00 0.138000000E+01 0.999999978E-02 0.000000000E+00 0.139999998E+01 0.999999978E-02 0.000000000E+00 0.141999996E+01 0.999999978E-02 0.000000000E+00 0.144000006E+01 0.999999978E-02 0.000000000E+00 0.146000004E+01 0.999999978E-02 0.000000000E+00 0.148000002E+01 0.999999978E-02 0.000000000E+00 0.150000000E+01 0.999999978E-02 0.000000000E+00 0.151999998E+01 0.999999978E-02 0.000000000E+00 0.153999996E+01 0.999999978E-02 0.000000000E+00 0.155999994E+01 0.999999978E-02 0.000000000E+00 0.158000004E+01 0.999999978E-02 0.000000000E+00 0.160000002E+01 0.999999978E-02 0.000000000E+00 0.162000000E+01 0.999999978E-02 0.000000000E+00 0.163999999E+01 0.999999978E-02 0.000000000E+00 0.165999997E+01 0.999999978E-02 0.000000000E+00 0.167999995E+01 0.999999978E-02 0.000000000E+00 0.170000005E+01 0.999999978E-02 0.000000000E+00 0.172000003E+01 0.999999978E-02 0.000000000E+00 0.174000001E+01 0.999999978E-02 0.000000000E+00 0.175999999E+01 0.999999978E-02 0.000000000E+00 0.177999997E+01 0.999999978E-02 0.000000000E+00 0.179999995E+01 0.999999978E-02 0.000000000E+00 0.182000005E+01 0.999999978E-02 0.000000000E+00 0.184000003E+01 0.999999978E-02 0.000000000E+00 0.186000001E+01 0.999999978E-02 0.000000000E+00 0.188000000E+01 0.999999978E-02 0.000000000E+00 0.189999998E+01 0.999999978E-02 0.000000000E+00 0.191999996E+01 0.999999978E-02 0.000000000E+00 0.194000006E+01 0.999999978E-02 0.000000000E+00 0.196000004E+01 0.999999978E-02 0.000000000E+00 0.198000002E+01 0.999999978E-02 0.000000000E+00 0.200000000E+01 0.999999978E-02 0.000000000E+00
[...]
<CellData Scalars="Temperature, U, V">
<DataArray type="Float32" Name="Temp, K"/>
0.000000000E+00 0.000000000E+00 0.000000000E+00 0.000000000E+00 0.000000000E+00 0.000000000E+00 0.000000000E+00 0.000000000E+00 0.000000000E+00 0.000000000E+00 0.000000000E+00 0.000000000E+00 0.000000000E+00 0.700649232E-43 0.839377780E-42 0.342477345E-41 0.447294470E-41 0.244666712E-41 0.769312857E-42 0.700649232E-43 0.000000000E+00 0.000000000E+00 0.000000000E+00 0.000000000E+00 0.000000000E+00 0.000000000E+00 0.000000000E+00 0.000000000E+00 0.000000000E+00 0.000000000E+00 0.000000000E+00 0.000000000E+00 0.000000000E+00 0.000000000E+00 0.000000000E+00 0.000000000E+00 0.000000000E+00 0.238220739E-43 0.938869971E-43 0.253778123E-37 0.273992246E-31 0.211567164E-25 0.896100510E-20 0.108737193E-17 0.137786484E-12 0.768933268E-11 0.207954043E-09 0.322987326E-08 0.285506676E-07 0.393155020E-07 0.611014306E-08 0.530650413E-09 0.278655415E-10 0.858463637E-12 0.124772307E-13 0.105617445E-18 0.767433424E-21 0.185249982E-26 0.245560201E-32 0.233751017E-38 0.770714155E-43 0.154142831E-43 0.000000000E+00 0.000000000E+00 0.000000000E+00 0.000000000E+00 0.000000000E+00 0.000000000E+00 0.000000000E+00 0.000000000E+00 0.000000000E+00 0.000000000E+00 0.000000000E+00 0.000000000E+00 0.000000000E+00 0.000000000E+00 0.000000000E+00 0.000000000E+00 0.000000000E+00 0.700649232E-43 0.699247934E-42 0.230653727E-41 0.398389153E-41 0.293572028E-41 0.699247934E-42 0.700649232E-43 0.000000000E+00 0.000000000E+00 0.000000000E+00 0.000000000E+00 0.000000000E+00 0.000000000E+00 0.000000000E+00 0.000000000E+00 0.000000000E+00 0.000000000E+00 0.000000000E+00 0.000000000E+00 0.000000000E+00 0.000000000E+00
0.000000000E+00 0.000000000E+00 0.000000000E+00 0.000000000E+00 0.000000000E+00 0.000000000E+00 0.000000000E+00 0.000000000E+00 0.000000000E+00 0.000000000E+00 0.000000000E+00 0.000000000E+00 0.174741919E-41 0.602446236E-40 0.510619147E-39 0.141262796E-38 0.154814333E-38 0.820095913E-39 0.252305190E-39 0.506695512E-40 0.712980659E-41 0.699247934E-42 0.000000000E+00 0.000000000E+00 0.000000000E+00 0.000000000E+00 0.000000000E+00 0.000000000E+00 0.000000000E+00 0.000000000E+00 0.000000000E+00 0.000000000E+00 0.000000000E+00 0.000000000E+00 0.000000000E+00 0.000000000E+00 0.126116862E-43 0.546506401E-43 0.686829627E-39 0.766300772E-33 0.651843893E-27 0.384449936E-21 0.125124964E-15 0.129349376E-13 0.885093810E-12 0.330126898E-10 0.755986829E-09 0.108399165E-07 0.925500103E-07 0.126865928E-06 0.198469667E-07 0.179627813E-08 0.103057271E-09 0.381289531E-11 0.875885803E-13 0.114931624E-14 0.967008712E-17 0.302159917E-22 0.522796572E-28 0.632005112E-34 0.587088005E-40 0.560519386E-43 0.980908925E-44 0.000000000E+00 0.000000000E+00 0.000000000E+00 0.000000000E+00 0.000000000E+00 0.000000000E+00 0.000000000E+00 0.000000000E+00 0.000000000E+00 0.000000000E+00 0.000000000E+00 0.000000000E+00 0.000000000E+00 0.000000000E+00 0.629183010E-42 0.643055865E-41 0.458476832E-40 0.229800336E-39 0.746711314E-39 0.139333769E-38 0.123223881E-38 0.424374832E-39 0.471761141E-40 0.132843094E-41 0.000000000E+00 0.000000000E+00 0.000000000E+00 0.000000000E+00 0.000000000E+00 0.000000000E+00 0.000000000E+00 0.000000000E+00 0.000000000E+00 0.000000000E+00 0.000000000E+00 0.000000000E+00 0.000000000E+00
0.000000000E+00 0.000000000E+00 0.000000000E+00 0.000000000E+00 0.000000000E+00 0.000000000E+00 0.000000000E+00 0.000000000E+00 0.000000000E+00 0.000000000E+00 0.700649232E-43 0.200595875E-40 0.152088387E-38 0.264299548E-37 0.147031779E-36 0.317715437E-36 0.309510262E-36 0.159471274E-36 0.500449981E-37 0.105071237E-37 0.156876204E-38 0.173259345E-39 0.145384716E-40 0.909442703E-42 0.000000000E+00 0.000000000E+00 0.000000000E+00 0.000000000E+00 0.000000000E+00 0.000000000E+00 0.000000000E+00 0.000000000E+00 0.000000000E+00 0.000000000E+00 0.000000000E+00 0.420389539E-44 0.546506401E-43 0.153638364E-40 0.168478302E-34 0.140142444E-28 0.773866632E-23 0.207749203E-17 0.659309641E-15 0.567634793E-13 0.294060132E-11 0.943394043E-10 0.197898742E-08 0.269816169E-07 0.224597642E-06 0.305692538E-06 0.480893618E-07 0.447268089E-08 0.270512335E-09 0.109665610E-10 0.294936140E-12 0.502133583E-14 0.510120299E-16 0.143212713E-18 0.547005914E-24 0.102529156E-29 0.128591434E-35 0.116588032E-41 0.280259693E-43 0.000000000E+00 0.000000000E+00 0.000000000E+00 0.000000000E+00 0.000000000E+00 0.000000000E+00 0.000000000E+00 0.000000000E+00 0.000000000E+00 0.000000000E+00 0.000000000E+00 0.000000000E+00 0.769312857E-42 0.130699108E-40 0.155366165E-39 0.141164845E-38 0.950140054E-38 0.454320132E-37 0.144768772E-36 0.278326820E-36 0.278126356E-36 0.123022884E-36 0.208616473E-37 0.112369703E-38 0.138392236E-40 0.700649232E-43 0.000000000E+00 0.000000000E+00 0.000000000E+00 0.000000000E+00 0.000000000E+00 0.000000000E+00 0.000000000E+00 0.000000000E+00 0.000000000E+00 0.000000000E+00 0.000000000E+00
0.000000000E+00 0.000000000E+00 0.000000000E+00 0.000000000E+00 0.000000000E+00 0.000000000E+00 0.000000000E+00 0.000000000E+00 0.000000000E+00 0.140129846E-42 0.101410569E-39 0.166565412E-37 0.566003059E-36 0.599713484E-35 0.245961287E-34 0.445469024E-34 0.401348554E-34 0.204647124E-34 0.660247210E-35 0.145695983E-35 0.231833038E-36 0.275838680E-37 0.251542883E-38 0.178430136E-39 0.992399572E-41 0.418988241E-42 0.000000000E+00 0.000000000E+00 0.000000000E+00 0.000000000E+00 0.000000000E+00 0.000000000E+00 0.000000000E+00 0.000000000E+00 0.000000000E+00 0.966895940E-43 0.273253201E-42 0.316331985E-36 0.259144171E-30 0.146480512E-24 0.423299209E-19 0.144565264E-16 0.231868599E-14 0.168866968E-12 0.761781350E-11 0.224158414E-09 0.444492843E-08 0.584742459E-07 0.476937942E-06 0.644041052E-06 0.101884268E-06 0.966828395E-08 0.606096617E-09 0.260167651E-10 0.764653044E-12 0.148806680E-13 0.179522055E-15 0.998168771E-18 0.263142834E-20 0.948346702E-26 0.176130857E-31 0.227490941E-37 0.476441478E-43 0.742688186E-43 0.000000000E+00 0.000000000E+00 0.000000000E+00 0.000000000E+00 0.000000000E+00 0.000000000E+00 0.000000000E+00 0.000000000E+00 0.000000000E+00 0.418988241E-42 0.880716085E-41 0.159209926E-39 0.224432382E-38 0.246609108E-37 0.208046815E-36 0.131351494E-35 0.597564103E-35 0.185291085E-34 0.360516914E-34 0.390957827E-34 0.207130843E-34 0.477467704E-35 0.421500265E-36 0.115242856E-37 0.650678929E-40 0.700649232E-43 0.000000000E+00 0.000000000E+00 0.000000000E+00 0.000000000E+00 0.000000000E+00 0.000000000E+00 0.000000000E+00 0.000000000E+00 0.000000000E+00 0.000000000E+00
0.000000000E+00 0.000000000E+00 0.000000000E+00 0.000000000E+00 0.000000000E+00 0.000000000E+00 0.000000000E+00 0.000000000E+00 0.210194770E-42 0.255588432E-39 0.882174276E-37 0.566841542E-35 0.109487358E-33 0.814037919E-33 0.266821679E-32 0.425356341E-32 0.363984920E-32 0.185800915E-32 0.619421789E-33 0.144020546E-33 0.244529888E-34 0.313200870E-35 0.309729157E-36 0.240316745E-37 0.147657342E-38 0.840078429E-40 0.440287977E-41 0.140129846E-42 0.000000000E+00 0.000000000E+00 0.000000000E+00 0.000000000E+00 0.000000000E+00 0.000000000E+00 0.882818033E-43 0.756701171E-43 0.527203094E-38 0.395606599E-32 0.209650917E-26 0.587424705E-21 0.303301333E-18 0.586988671E-16 0.662329578E-14 0.419943567E-12 0.172304185E-10 0.476958528E-09 0.907103281E-08 0.115990346E-06 0.929234091E-06 0.124496808E-05 0.198183642E-06 0.191226643E-07 0.123225274E-08 0.551457768E-10 0.172508351E-11 0.368838362E-13 0.512971835E-15 0.406060688E-17 0.189310413E-19 0.335100539E-22 0.126559634E-27 0.254837716E-33 0.365562336E-39 0.868805048E-43 0.868805048E-43 0.000000000E+00 0.000000000E+00 0.000000000E+00 0.000000000E+00 0.000000000E+00 0.000000000E+00 0.140129846E-42 0.405255516E-41 0.756210716E-40 0.131925244E-38 0.214033795E-37 0.275714217E-36 0.279310989E-35 0.218862627E-34 0.129491126E-33 0.559134265E-33 0.167841455E-32 0.326582232E-32 0.373951973E-32 0.225919141E-32 0.653485044E-33 0.823065992E-34 0.395318126E-35 0.567080153E-37 0.151103415E-39 0.700649232E-43 0.000000000E+00 0.000000000E+00 0.000000000E+00 0.000000000E+00 0.000000000E+00 0.000000000E+00 0.000000000E+00 0.000000000E+00 0.000000000E+00
0.000000000E+00 0.000000000E+00 0.000000000E+00 0.000000000E+00 0.000000000E+00 0.000000000E+00 0.000000000E+00 0.700649232E-43 0.344209350E-39 0.243895572E-36 0.289849270E-34 0.988349956E-33 0.128031921E-31 0.731112700E-31 0.202373484E-30 0.293749314E-30 0.243068675E-30 0.125151851E-30 0.432318111E-31 0.105993422E-31 0.192048318E-32 0.264728261E-33 0.283550503E-34 0.239669480E-35 0.161573267E-36 0.101530436E-37 0.588755550E-39 0.311018194E-40 0.146856079E-41 0.000000000E+00 0.000000000E+00 0.000000000E+00 0.000000000E+00 0.238220739E-43 0.476441478E-43 0.889081837E-40 0.582166505E-34 0.271357962E-28 0.672703819E-23 0.467424093E-20 0.128663219E-17 0.182872375E-15 0.165252943E-13 0.936142548E-12 0.356757575E-10 0.940621803E-09 0.172844228E-07 0.215623075E-06 0.169838063E-05 0.225835583E-05 0.362106107E-06 0.354754910E-07 0.234003505E-08 0.108325481E-09 0.356030917E-11 0.820010699E-13 0.128019459E-14 0.126764957E-16 0.806413985E-19 0.268362402E-21 0.361144072E-24 0.157001019E-29 0.366526371E-35 0.613908857E-41 0.364337601E-43 0.308285662E-43 0.000000000E+00 0.000000000E+00 0.000000000E+00 0.000000000E+00 0.139849587E-41 0.284463588E-40 0.533961977E-39 0.911573378E-38 0.144089994E-36 0.213014173E-35 0.251849837E-34 0.235544203E-33 0.171495369E-32 0.950830491E-32 0.389376097E-31 0.112833352E-30 0.217853334E-30 0.258540602E-30 0.172102529E-30 0.591262432E-31 0.971438450E-32 0.695949318E-33 0.187735416E-34 0.144332105E-36 0.185209618E-39 0.700649232E-43 0.000000000E+00 0.000000000E+00 0.000000000E+00 0.000000000E+00 0.000000000E+00 0.000000000E+00 0.000000000E+00 0.000000000E+00
0.000000000E+00 0.000000000E+00 0.000000000E+00 0.000000000E+00 0.000000000E+00 0.000000000E+00 0.000000000E+00 0.260830690E-39 0.372636449E-36 0.807782269E-34 0.475651777E-32 0.104141088E-30 0.100008596E-29 0.466001884E-29 0.113227498E-28 0.153266889E-28 0.124162401E-28 0.647965287E-29 0.232182365E-29 0.599920454E-30 0.115863177E-30 0.171680509E-31 0.198939544E-32 0.182852795E-33 0.134709615E-34 0.927442192E-36 0.593092400E-37 0.348864883E-38 0.186117659E-39 0.894729069E-41 0.348923318E-42 0.000000000E+00 0.364337601E-43 0.574532370E-43 0.163811790E-41 0.923517031E-36 0.371157733E-30 0.802469495E-25 0.614697646E-22 0.217735861E-19 0.420839593E-17 0.485009477E-15 0.374498812E-13 0.193376326E-11 0.693068450E-10 0.175270909E-08 0.312419637E-07 0.380938332E-06 0.295076325E-05 0.389579736E-05 0.629857880E-06 0.626279189E-07 0.421987423E-08 0.201210507E-09 0.689703026E-11 0.169050822E-12 0.290237110E-14 0.336964827E-16 0.264922220E-18 0.125868425E-20 0.333192206E-23 0.419506792E-26 0.213617901E-31 0.591615768E-37 0.784727140E-43 0.784727140E-43 0.560519386E-43 0.000000000E+00 0.348923318E-42 0.845683623E-41 0.174025855E-39 0.320356587E-38 0.537095505E-37 0.831238411E-36 0.119905231E-34 0.162194148E-33 0.176347846E-32 0.152458634E-31 0.103268824E-30 0.537172236E-30 0.208740337E-29 0.583225528E-29 0.111170349E-28 0.134991620E-28 0.966265158E-29 0.379276393E-29 0.765374810E-30 0.740476041E-31 0.311000834E-32 0.481309721E-34 0.200770443E-36 0.126013166E-39 0.000000000E+00 0.000000000E+00 0.000000000E+00 0.000000000E+00 0.000000000E+00 0.000000000E+00 0.000000000E+00 0.000000000E+00
0.000000000E+00 0.000000000E+00 0.000000000E+00 0.000000000E+00 0.000000000E+00 0.000000000E+00 0.115388521E-39 0.328473127E-36 0.128864544E-33 0.129221565E-31 0.467954756E-30 0.734628524E-29 0.558837884E-28 0.221690546E-27 0.486273526E-27 0.624533436E-27 0.499663506E-27 0.265126092E-27 0.985567566E-28 0.267988818E-28 0.550522297E-29 0.874937278E-30 0.109467864E-30 0.109216642E-31 0.877289985E-33 0.658977312E-34 0.460982802E-35 0.298491460E-36 0.177214664E-37 0.951625991E-39 0.454272936E-40 0.192818669E-41 0.133123354E-42 0.420389539E-43 0.175797503E-37 0.553573167E-32 0.101340931E-26 0.831739538E-24 0.322951526E-21 0.775572168E-19 0.117348532E-16 0.115402702E-14 0.789953023E-13 0.377302529E-11 0.128222488E-09 0.312353254E-08 0.541286695E-07 0.645639091E-06 0.491744458E-05 0.644889951E-05 0.105247864E-05 0.106224952E-06 0.730424876E-08 0.357864710E-09 0.127347325E-10 0.329446323E-12 0.612679641E-14 0.803842406E-16 0.742196438E-18 0.451620420E-20 0.176853622E-22 0.440713877E-25 0.538810620E-28 0.331940067E-33 0.121175883E-38 0.756701171E-43 0.144333742E-42 0.193239058E-41 0.444491873E-40 0.907876052E-39 0.165389232E-37 0.273674778E-36 0.416780010E-35 0.589593298E-34 0.779482426E-33 0.967093529E-32 0.968782846E-31 0.775789784E-30 0.489963800E-29 0.239612197E-28 0.884776851E-28 0.238311755E-27 0.446978151E-27 0.550298130E-27 0.416118639E-27 0.181416450E-27 0.431019300E-28 0.527238406E-29 0.308979678E-30 0.776891196E-32 0.698455957E-34 0.158963769E-36 0.492724566E-40 0.000000000E+00 0.000000000E+00 0.000000000E+00 0.000000000E+00 0.000000000E+00 0.000000000E+00 0.000000000E+00
0.000000000E+00 0.000000000E+00 0.000000000E+00 0.000000000E+00 0.000000000E+00 0.305427013E-40 0.172462645E-36 0.122075685E-33 0.206946662E-31 0.122225232E-29 0.307183990E-28 0.371898589E-27 0.234631654E-26 0.817361895E-26 0.165268640E-25 0.203986395E-25 0.162198615E-25 0.876817818E-26 0.337979751E-26 0.965306325E-27 0.210368774E-27 0.357549586E-28 0.481633815E-29 0.520284238E-30 0.454637986E-31 0.371637351E-32 0.283164306E-33 0.200241445E-34 0.130613761E-35 0.778622299E-37 0.418660057E-38 0.199626177E-39 0.823963497E-41 0.488394554E-39 0.119639829E-33 0.142251413E-28 0.119477175E-25 0.490273660E-23 0.128077780E-20 0.234043672E-18 0.293594160E-16 0.254001443E-14 0.157678910E-12 0.704063891E-11 0.228161476E-09 0.536861311E-08 0.905600146E-07 0.105700428E-05 0.791285220E-05 0.103116345E-04 0.170061890E-05 0.174295934E-06 0.122265407E-07 0.614667151E-09 0.226394962E-10 0.614565690E-12 0.122449412E-13 0.177457638E-15 0.186641290E-17 0.137346071E-19 0.708966335E-22 0.263465491E-24 0.646310841E-27 0.810202428E-30 0.799173222E-35 0.385146883E-40 0.860257127E-41 0.201147987E-39 0.409154489E-38 0.741444169E-37 0.121710534E-35 0.183308586E-34 0.255599928E-33 0.331970405E-32 0.403332330E-31 0.460064274E-30 0.425717297E-29 0.316678404E-28 0.187029067E-27 0.862166999E-27 0.303075911E-26 0.787270164E-26 0.144982804E-25 0.179782587E-25 0.141731727E-25 0.671954338E-26 0.182220205E-26 0.269231910E-27 0.204798530E-28 0.741914952E-30 0.113103150E-31 0.593777955E-34 0.737137643E-37 0.112524267E-40 0.000000000E+00 0.000000000E+00 0.000000000E+00 0.000000000E+00 0.000000000E+00 0.000000000E+00
0.000000000E+00 0.000000000E+00 0.000000000E+00 0.000000000E+00 0.489193294E-41 0.551270143E-37 0.705225094E-34 0.201781937E-31 0.192900353E-29 0.765305638E-28 0.144665698E-26 0.141910838E-25 0.767794868E-25 0.240441969E-24 0.455362168E-24 0.545393630E-24 0.433022711E-24 0.238791524E-24 0.953676998E-25 0.285508052E-25 0.658183785E-26 0.119239350E-26 0.172337111E-27 0.200907851E-28 0.190421207E-29 0.168959704E-30 0.139819660E-31 0.107502861E-32 0.764499339E-34 0.499714494E-35 0.297500597E-36 0.159252778E-37 0.766944663E-39 0.346597602E-35 0.498644092E-30 0.211691021E-27 0.802299829E-25 0.216610792E-22 0.426344801E-20 0.630694663E-18 0.679243198E-16 0.527360468E-14 0.301336782E-12 0.126757849E-10 0.393266752E-09 0.895409613E-08 0.147121852E-06 0.168030283E-05 0.123576619E-04 0.160075306E-04 0.267061114E-05 0.278102050E-06 0.199019325E-07 0.102588404E-08 0.390313094E-10 0.110713739E-11 0.234455772E-13 0.369738431E-15 0.434228793E-17 0.373188188E-19 0.238686111E-21 0.118132433E-23 0.442378289E-26 0.124010102E-28 0.322259866E-31 0.261550542E-36 0.786258759E-39 0.160140473E-37 0.290241871E-36 0.475122491E-35 0.711319699E-34 0.982637972E-33 0.126023324E-31 0.150720628E-30 0.168731813E-29 0.177477409E-28 0.152202632E-27 0.105532574E-26 0.584754355E-26 0.254815107E-25 0.854487723E-25 0.214219764E-24 0.386808429E-24 0.480742042E-24 0.391181036E-24 0.198434152E-24 0.599927794E-25 0.103553216E-25 0.973379920E-27 0.469102127E-28 0.106400971E-29 0.988897553E-32 0.302693325E-34 0.203614188E-37 0.153722442E-41 0.000000000E+00 0.000000000E+00 0.000000000E+00 0.000000000E+00 0.000000000E+00
0.000000000E+00 0.000000000E+00 0.000000000E+00 0.489053164E-42 0.108543836E-37 0.252820423E-34 0.122570221E-31 0.189340862E-29 0.117645683E-27 0.342776511E-26 0.513808034E-25 0.423272982E-24 0.201441825E-23 0.577505821E-23 0.103722579E-22 0.121455518E-22 0.966287004E-23 0.544013666E-23 0.224896119E-23 0.704255573E-24 0.171246036E-24 0.329556935E-25 0.509164416E-26 0.638164302E-27 0.653703535E-28 0.627620470E-29 0.562492714E-30 0.468754762E-31 0.361772676E-32 0.257349532E-33 0.167658383E-34 0.991236293E-36 0.527269152E-37 0.519222972E-34 0.702036598E-29 0.171068590E-26 0.403356266E-24 0.799632959E-22 0.125895702E-19 0.156601430E-17 0.148176675E-15 0.104669784E-13 0.556128006E-12 0.221612711E-10 0.660101640E-09 0.145600119E-07 0.233091328E-06 0.260443903E-05 0.188066660E-04 0.242225651E-04 0.409214954E-05 0.433252723E-06 0.316381374E-07 0.167158898E-08 0.656084145E-10 0.193876013E-11 0.433837536E-13 0.736885895E-15 0.953125561E-17 0.934835714E-19 0.713258748E-21 0.442904575E-23 0.226976406E-25 0.102751685E-27 0.461346315E-30 0.399721387E-35 0.546005297E-37 0.995015359E-36 0.163313689E-34 0.244324274E-33 0.336124969E-32 0.427887643E-31 0.506374472E-30 0.559298482E-29 0.578779323E-28 0.563400664E-27 0.449475880E-26 0.291567335E-25 0.152086774E-24 0.628278802E-24 0.201396071E-23 0.487726784E-23 0.862711933E-23 0.107065851E-22 0.892256036E-23 0.478165592E-23 0.158242776E-23 0.311099920E-24 0.348704192E-25 0.212095693E-26 0.655205339E-28 0.936000636E-30 0.529627943E-32 0.937001083E-35 0.336410143E-38 0.140129846E-42 0.000000000E+00 0.000000000E+00 0.000000000E+00 0.000000000E+00
0.000000000E+00 0.000000000E+00 0.000000000E+00 0.131645545E-38 0.567040639E-35 0.470553805E-32 0.117943310E-29 0.114531070E-27 0.510735475E-26 0.115592405E-24 0.142758008E-23 0.101488233E-22 0.433399424E-22 0.115401439E-21 0.198508605E-21 0.228594397E-21 0.182733987E-21 0.105081952E-21 0.449214602E-22 0.146842703E-22 0.375575573E-23 0.765235113E-24 0.125911926E-24 0.168994421E-25 0.186341464E-26 0.192867644E-27 0.186579955E-28 0.168006862E-29 0.140241589E-30 0.108058677E-31 0.764705360E-33 0.493745567E-34 0.322555392E-35 0.298055468E-31 0.564307585E-28 0.100397696E-25 0.168998776E-23 0.261086302E-21 0.340938613E-19 0.365679674E-17 0.308920063E-15 0.200502727E-13 0.997635676E-12 0.378124927E-10 0.108346143E-08 0.231681092E-07 0.361396758E-06 0.394913832E-05 0.279826090E-04 0.358448451E-04 0.613798056E-05 0.661173488E-06 0.492867152E-07 0.266889710E-08 0.107972555E-09 0.331678652E-11 0.780946081E-13 0.141836525E-14 0.200062383E-16 0.220360579E-18 0.195596509E-20 0.146990582E-22 0.971415521E-25 0.617569563E-27 0.378051020E-29 0.223357114E-32 0.302143876E-35 0.494842083E-34 0.743795658E-33 0.102447698E-31 0.130133890E-30 0.153191044E-29 0.167816989E-28 0.171761041E-27 0.164914377E-26 0.149161980E-25 0.111140986E-24 0.677001760E-24 0.333540409E-23 0.130983112E-22 0.402162741E-22 0.941711288E-22 0.163085809E-21 0.201523858E-21 0.170954741E-21 0.958141431E-22 0.342054222E-22 0.750804677E-23 0.976644511E-24 0.721708751E-25 0.287134700E-26 0.571512128E-28 0.513741719E-30 0.175420822E-32 0.176227923E-35 0.328273783E-39 0.000000000E+00 0.000000000E+00 0.000000000E+00 0.000000000E+00