<?xml version="1.0"?>
<VTKFile type="StructuredGrid">
<StructuredGrid WholeExtent="     0   100     0   100     0     0">
<Piece Extent="     0   100     0   100     0     0">
<Points>
<DataArray type="Float32" NumberOfComponents="3"/>
0.000000000E+00 0.000000000E+00 0.000000000E+00 0.199999996E-01 0.000000000E+00 0.000000000E+00 0.399999991E-01 0.000000000E+00 0.000000000E+00 0.599999987E-01 0.000000000E+00 0.000000000E+00 0.799999982E-01 0.000000000E+00 0.000000000E+00 0.100000001E+00 0.000000000E+00 0.000000000E+00 0.119999997E+00 0.000000000E+00 0.000000000E+00 0.140000001E+00 0.000000000E+00 0.000000000E+00 0.159999996E+00 0.000000000E+00 0.000000000E+00 0.180000007E+00 0.000000000E+00 0.000000000E+00 0.200000003E+00 0.000000000E+00 0.000000000E+00 0.219999999E+00 0.000000000E+00 0.000000000E+00 0.239999995E+00 0.000000000E+00 0.000000000E+00 0.259999990E+00 0.000000000E+00 0.000000000E+00 0.280000001E+00 0.000000000E+00 0.000000000E+00 0.300000012E+00 0.000000000E+00 0.000000000E+00 0.319999993E+00 0.000000000E+00 0.000000000E+00 0.340000004E+00 0.000000000E+00 0.000000000E+00 0.360000014E+00 0.000000000E+00 0.000000000E+00 0.379999995E+00 0.000000000E+00 0.000000000E+00 0.400000006E+00 0.000000000E+00 0.000000000E+00 0.419999987E+00 0.000000000E+00 0.000000000E+00 0.439999998E+00 0.000000000E+00 0.000000000E+00 0.460000008E+00 0.000000000E+00 0.000000000E+00 0.479999989E+00 0.000000000E+00 0.000000000E+00 0.500000000E+00 0.000000000E+00 0.000000000E+00 0.519999981E+00 0.000000000E+00 0.000000000E+00 0.540000021E+00 0.000000000E+00 0.000000000E+00 0.560000002E+00 0.000000000E+00 0.000000000E+00 0.579999983E+00 0.000000000E+00 0.000000000E+00 0.600000024E+00 0.000000000E+00 0.000000000E+00 0.620000005E+00 0.000000000E+00 0.000000000E+00 0.639999986E+00 0.000000000E+00 0.000000000E+00 0.660000026E+00 0.000000000E+00 0.000000000E+00 0.680000007E+00 0.000000000E+00 0.000000000E+00 0.699999988E+00 0.000000000E+00 0.000000000E+00 0.720000029E+00 0.000000000E+00 0.000000000E+00 0.740000010E+00 0.000000000E+00 0.000000000E+00 0.759999990E+00 0.000000000E+00 0.000000000E+00 0.779999971E+00 0.000000000E+00 0.000000000E+00 0.800000012E+00 0.000000000E+00 0.000000000E+00 0.819999993E+00 0.000000000E+00 0.000000000E+00 0.839999974E+00 0.000000000E+00 0.000000000E+00 0.860000014E+00 0.000000000E+00 0.000000000E+00 0.879999995E+00 0.000000000E+00 0.000000000E+00 0.899999976E+00 0.000000000E+00 0.000000000E+00 0.920000017E+00 0.000000000E+00 0.000000000E+00 0.939999998E+00 0.000000000E+00 0.000000000E+00 0.959999979E+00 0.000000000E+00 0.000000000E+00 0.980000019E+00 0.000000000E+00 0.000000000E+00 0.100000000E+01 0.000000000E+00 0.000000000E+00 0.101999998E+01 0.000000000E+00 0.000000000E+00 0.103999996E+01 0.000000000E+00 0.000000000E+00 0.105999994E+01 0.000000000E+00 0.000000000E+00 0.108000004E+01 0.000000000E+00 0.000000000E+00 0.110000002E+01 0.000000000E+00 0.000000000E+00 0.112000000E+01 0.000000000E+00 0.000000000E+00 0.113999999E+01 0.000000000E+00 0.000000000E+00 0.115999997E+01 0.000000000E+00 0.000000000E+00 0.117999995E+01 0.000000000E+00 0.000000000E+00 0.120000005E+01 0.000000000E+00 0.000000000E+00 0.122000003E+01 0.000000000E+00 0.000000000E+00 0.124000001E+01 0.000000000E+00 0.000000000E+00 0.125999999E+01 0.000000000E+00 0.000000000E+00 0.127999997E+01 0.000000000E+00 0.000000000E+00 0.129999995E+01 0.000000000E+00 0.000000000E+00 0.132000005E+01 0.000000000E+00 0.000000000E+00 0.134000003E+01 0.000000000E+00 0.000000000E+00 0.136000001E+01 0.000000000E+00 0.000000000E+00 0.138000000E+01 0.000000000E+00 0.000000000E+00 0.139999998E+01 0.000000000E+00 0.000000000E+00 0.141999996E+01 0.000000000E+00 0.000000000E+00 0.144000006E+01 0.000000000E+00 0.000000000E+00 0.146000004E+01 0.000000000E+00 0.000000000E+00 0.148000002E+01 0.000000000E+00 0.000000000E+00 0.150000000E+01 0.000000000E+00 0.000000000E+00 0.151999998E+01 0.000000000E+00 0.000000000E+00 0.153999996E+01 0.000000000E+00 0.000000000E+00 0.155999994E+01 0.000000000E+00 0.000000000E+00 0.158000004E+01 0.000000000E+00 0.000000000E+00 0.160000002E+01 0.000000000E+00 0.000000000E+00 0.162000000E+01 0.000000000E+00 0.000000000E+00 0.163999999E+01 0.000000000E+00 0.000000000E+00 0.165999997E+01 0.000000000E+00 0.000000000E+00 0.167999995E+01 0.000000000E+00 0.000000000E+00 0.170000005E+01 0.000000000E+00 0.000000000E+00 0.172000003E+01 0.000000000E+00 0.000000000E+00 0.174000001E+01 0.000000000E+00 0.000000000E+00 0.175999999E+01 0.000000000E+00 0.000000000E+00 0.177999997E+01 0.000000000E+00 0.000000000E+00 0.179999995E+01 0.000000000E+00 0.000000000E+00 0.182000005E+01 0.000000000E+00 0.000000000E+00 0.184000003E+01 0.000000000E+00 0.000000000E+00 0.186000001E+01 0.000000000E+00 0.000000000E+00 0.188000000E+01 0.000000000E+00 0.000000000E+00 0.189999998E+01 0.000000000E+00 0.000000000E+00 0.191999996E+01 0.000000000E+00 0.000000000E+00 0.194000006E+01 0.000000000E+00 0.000000000E+00 0.196000004E+01 0.000000000E+00 0.000000000E+00 0.198000002E+01 0.000000000E+00 0.000000000E+00 0.200000000E+01 0.000000000E+00 0.000000000E+00
0.000000000E+00 0.999999978E-02 0.000000000E+00 0.199999996E-01 0.999999978E-02 0.000000000E+00 0.399999991E-01 0.999999978E-02 0.000000000E+00 0.599999987E-01 0.999999978E-02 0.000000000E+00 0.799999982E-01 0.999999978E-02 0.000000000E+00 0.100000001E+00 0.999999978E-02 0.000000000E+00 0.119999997E+00 0.999999978E-02 0.000000000E+00 0.140000001E+00 0.999999978E-02 0.000000000E+00 0.159999996E+00 0.999999978E-02 0.000000000E+00 0.180000007E+00 0.999999978E-02 0.000000000E+00 0.200000003E+00 0.999999978E-02 0.000000000E+00 0.219999999E+00 0.999999978E-02 0.000000000E+00 0.239999995E+00 0.999999978E-02 0.000000000E+00 0.259999990E+00 0.999999978E-02 0.000000000E+00 0.280000001E+00 0.999999978E-02 0.000000000E+00 0.300000012E+00 0.999999978E-02 0.000000000E+00 0.319999993E+00 0.999999978E-02 0.000000000E+00 0.340000004E+00 0.999999978E-02 0.000000000E+00 0.360000014E+00 0.999999978E-02 0.000000000E+00 0.379999995E+00 0.999999978E-02 0.000000000E+00 0.400000006E+00 0.999999978E-02 0.000000000E+00 0.419999987E+00 0.999999978E-02 0.000000000E+00 0.439999998E+00 0.999999978E-02 0.000000000E+00 0.460000008E+00 0.999999978E-02 0.000000000E+00 0.479999989E+00 0.999999978E-02 0.000000000E+00 0.500000000E+00 0.999999978E-02 0.000000000E+00 0.519999981E+00 0.999999978E-02 0.000000000E+00 0.540000021E+00 0.999999978E-02 0.000000000E+00 0.560000002E+00 0.999999978E-02 0.000000000E+00 0.579999983E+00 0.999999978E-02 0.000000000E+00 0.600000024E+00 0.999999978E-02 0.000000000E+00 0.620000005E+00 0.999999978E-02 0.000000000E+00 0.639999986E+00 0.999999978E-02 0.000000000E+00 0.660000026E+00 0.999999978E-02 0.000000000E+00 0.680000007E+00 0.999999978E-02 0.000000000E+00 0.699999988E+00 0.999999978E-02 0.000000000E+00 0.720000029E+00 0.999999978E-02 0.000000000E+00 0.740000010E+00 0.999999978E-02 0.000000000E+00 0.759999990E+00 0.999999978E-02 0.000000000E+00 0.779999971E+00 0.999999978E-02 0.000000000E+00 0.800000012E+00 0.999999978E-02 0.000000000E+00 0.819999993E+00 0.999999978E-02 0.000000000E+00 0.839999974E+00 0.999999978E-02 0.000000000E+00 0.860000014E+00 0.999999978E-02 0.000000000E+00 0.879999995E+00 0.999999978E-02 0.000000000E+00 0.899999976E+00 0.999999978E-02 0.000000000E+00 0.920000017E+00 0.999999978E-02 0.000000000E+00 0.939999998E+00 0.999999978E-02 0.000000000E+00 0.959999979E+00 0.999999978E-02 0.000000000E+00 0.980000019E+00 0.999999978E-02 0.000000000E+00 0.100000000E+01 0.999999978E-02 0.000000000E+00 0.101999998E+01 0.999999978E-02 0.000000000E+00 0.103999996E+01 0.999999978E-02 0.000000000E+00 0.105999994E+01 0.999999978E-02 0.000000000E+00 0.108000004E+01 0.999999978E-02 0.000000000E+00 0.110000002E+01 0.999999978E-02 0.000000000E+00 0.112000000E+01 0.999999978E-02 0.000000000E+00 0.113999999E+01 0.999999978E-02 0.000000000E+00 0.115999997E+01 0.999999978E-02 0.000000000E+00 0.117999995E+01 0.999999978E-02 0.000000000E+00 0.120000005E+01 0.999999978E-02 0.000000000E+00 0.122000003E+01 0.999999978E-02 0.000000000E+00 0.124000001E+01 0.999999978E-02 0.000000000E+00 0.125999999E+01 0.999999978E-02 0.000000000E+00 0.127999997E+01 0.999999978E-02 0.000000000E+00 0.129999995E+01 0.999999978E-02 0.000000000E+00 0.132000005E+01 0.999999978E-02 0.000000000E+00 0.134000003E+01 0.999999978E-02 0.000000000E+00 0.136000001E+01 0.999999978E-02 0.000000000E+00 0.138000000E+01 0.999999978E-02 0.000000000E+00 0.139999998E+01 0.999999978E-02 0.000000000E+00 0.141999996E+01 0.999999978E-02 0.000000000E+00 0.144000006E+01 0.999999978E-02 0.000000000E+00 0.146000004E+01 0.999999978E-02 0.000000000E+00 0.148000002E+01 0.999999978E-02 0.000000000E+00 0.150000000E+01 0.999999978E-02 0.000000000E+00 0.151999998E+01 0.999999978E-02 0.000000000E+00 0.153999996E+01 0.999999978E-02 0.000000000E+00 0.155999994E+01 0.999999978E-02 0.000000000E+00 0.158000004E+01 0.999999978E-02 0.000000000E+00 0.160000002E+01 0.999999978E-02 0.000000000E+00 0.162000000E+01 0.999999978E-02 0.000000000E+00 0.163999999E+01 0.999999978E-02 0.000000000E+00 0.165999997E+01 0.999999978E-02 0.000000000E+00 0.167999995E+01 0.999999978E-02 0.000000000E+00 0.170000005E+01 0.999999978E-02 0.000000000E+00 0.172000003E+01 0.999999978E-02 0.000000000E+00 0.174000001E+01 0.999999978E-02 0.000000000E+00 0.175999999E+01 0.999999978E-02 0.000000000E+00 0.177999997E+01 0.999999978E-02 0.000000000E+00 0.179999995E+01 0.999999978E-02 0.000000000E+00 0.182000005E+01 0.999999978E-02 0.000000000E+00 0.184000003E+01 0.999999978E-02 0.000000000E+00 0.186000001E+01 0.999999978E-02 0.000000000E+00 0.188000000E+01 0.999999978E-02 0.000000000E+00 0.189999998E+01 0.999999978E-02 0.000000000E+00 0.191999996E+01 0.999999978E-02 0.000000000E+00 0.194000006E+01 0.999999978E-02 0.000000000E+00 0.196000004E+01 0.999999978E-02 0.000000000E+00 0.198000002E+01 0.999999978E-02 0.000000000E+00 0.200000000E+01 0.999999978E-02 0.000000000E+00
[...]
<CellData Scalars="Temperature, U, V">
<DataArray type="Float32" Name="Temp, K"/>
0.194233144E-05 0.556931082E-05 0.113846063E-04 0.196106685E-04 0.301396049E-04 0.425350190E-04 0.560797380E-04 0.698591975E-04 0.828669508E-04 0.941179460E-04 0.102755934E-03 0.108142580E-03 0.109919631E-03 0.108037813E-03 0.102750913E-03 0.945766369E-04 0.842301015E-04 0.725388891E-04 0.603504741E-04 0.484445954E-04 0.374614028E-04 0.278543630E-04 0.198724883E-04 0.135714936E-04 0.884866222E-05 0.566836479E-05 0.356147757E-05 0.219067397E-05 0.131641286E-05 0.771008843E-06 0.438978645E-06 0.242251133E-06 0.129146173E-06 0.662597373E-07 0.325759295E-07 0.152711515E-07 0.678716283E-08 0.284085777E-08 0.111109166E-08 0.402291034E-09 0.133333511E-09 0.398986573E-10 0.105945504E-10 0.244115795E-11 0.473602223E-12 0.741085118E-13 0.889110325E-14 0.926147654E-13 0.299750329E-10 0.423967320E-10 0.173925165E-12 0.292021999E-14 0.223554543E-13 0.146953047E-12 0.779140641E-12 0.347810062E-11 0.134719475E-10 0.463004600E-10 0.143652382E-09 0.407938128E-09 0.107227394E-08 0.263325273E-08 0.608917583E-08 0.133475009E-07 0.278936074E-07 0.558503714E-07 0.107607271E-06 0.200261312E-06 0.361196555E-06 0.633236994E-06 0.108195536E-05 0.180590644E-05 0.295081281E-05 0.472907459E-05 0.744642148E-05 0.115381663E-04 0.170879721E-04 0.242458300E-04 0.330297808E-04 0.432834750E-04 0.546515475E-04 0.665803382E-04 0.783477371E-04 0.891211675E-04 0.980381592E-04 0.104300343E-03 0.107268432E-03 0.106547290E-03 0.102047547E-03 0.940160025E-04 0.830269855E-04 0.699349766E-04 0.557889798E-04 0.417162046E-04 0.287884086E-04 0.178860118E-04 0.957904103E-05 0.404586854E-05 0.104992750E-05 0.938043306E-11
0.102712520E-04 0.288176288E-04 0.579933549E-04 0.987947496E-04 0.150698688E-03 0.211711143E-03 0.278594496E-03 0.347226858E-03 0.413040747E-03 0.471488078E-03 0.518484740E-03 0.550792203E-03 0.566305884E-03 0.564225949E-03 0.545099261E-03 0.510729617E-03 0.463968288E-03 0.408404798E-03 0.347992871E-03 0.286653230E-03 0.227901328E-03 0.174545843E-03 0.128496977E-03 0.907044159E-04 0.612260119E-04 0.405212195E-04 0.262527519E-04 0.166203936E-04 0.102617078E-04 0.616513535E-05 0.359519026E-05 0.202921524E-05 0.110501128E-05 0.578428171E-06 0.289839448E-06 0.138355759E-06 0.625665280E-07 0.266291913E-07 0.105853495E-07 0.389406996E-08 0.131112388E-08 0.398575978E-09 0.107539429E-09 0.251869619E-10 0.496969436E-11 0.791479783E-12 0.954684601E-13 0.195238574E-12 0.610707526E-10 0.863406915E-10 0.356107938E-12 0.291814404E-13 0.243405339E-12 0.157218043E-11 0.819762487E-11 0.360132514E-10 0.137347064E-09 0.464928623E-09 0.142099321E-08 0.397505318E-08 0.102906466E-07 0.248809364E-07 0.566176190E-07 0.122047595E-06 0.250625646E-06 0.492645540E-06 0.930843385E-06 0.169684461E-05 0.299384055E-05 0.512706811E-05 0.854389691E-05 0.138854757E-04 0.220521433E-04 0.342848834E-04 0.522654045E-04 0.782374846E-04 0.112104848E-03 0.154137364E-03 0.203811811E-03 0.259684602E-03 0.319376733E-03 0.379686331E-03 0.436824368E-03 0.486747711E-03 0.525553711E-03 0.549889577E-03 0.557325489E-03 0.546658062E-03 0.518097484E-03 0.473323104E-03 0.415384508E-03 0.348460540E-03 0.277477200E-03 0.207614503E-03 0.143748752E-03 0.898834405E-04 0.486379031E-04 0.208766633E-04 0.556761643E-05 0.484087978E-10
0.403114027E-04 0.110989153E-03 0.220325615E-03 0.371622620E-03 0.562872796E-03 0.787093712E-03 0.103318039E-02 0.128711062E-02 0.153334509E-02 0.175627193E-02 0.194157579E-02 0.207743095E-02 0.215544133E-02 0.217127544E-02 0.212494982E-02 0.202075252E-02 0.186680199E-02 0.167426968E-02 0.145633251E-02 0.122694043E-02 0.999529380E-03 0.785825599E-03 0.594892132E-03 0.432547269E-03 0.301230000E-03 0.205276257E-03 0.136680435E-03 0.887716160E-04 0.561338020E-04 0.344854197E-04 0.205336073E-04 0.118176522E-04 0.655371605E-05 0.348976505E-05 0.177701111E-05 0.861251635E-06 0.395135260E-06 0.170515079E-06 0.686915627E-07 0.256007286E-07 0.873107187E-08 0.268847122E-08 0.734853012E-09 0.174417300E-09 0.348933764E-10 0.563828715E-11 0.688936701E-12 0.343751910E-12 0.933830860E-10 0.131963343E-09 0.557940358E-12 0.210499180E-12 0.176352466E-11 0.112272561E-10 0.577466720E-10 0.250404586E-09 0.943057743E-09 0.315331627E-08 0.952107992E-08 0.263105502E-07 0.672719054E-07 0.160585941E-06 0.360599103E-06 0.766577784E-06 0.155120802E-05 0.300195347E-05 0.557858857E-05 0.999008171E-05 0.172935652E-04 0.290170701E-04 0.473063083E-04 0.750936888E-04 0.116285293E-03 0.175958470E-03 0.260559813E-03 0.378089666E-03 0.525941665E-03 0.703126891E-03 0.905476860E-03 0.112551800E-02 0.135277619E-02 0.157449255E-02 0.177666522E-02 0.194529688E-02 0.206770538E-02 0.213376153E-02 0.213692104E-02 0.207497971E-02 0.195045688E-02 0.177058671E-02 0.154687313E-02 0.129425700E-02 0.102989119E-02 0.771589752E-03 0.536077656E-03 0.337169855E-03 0.184071076E-03 0.800540001E-04 0.218151308E-04 0.183928595E-09
0.121989942E-03 0.329926348E-03 0.646435772E-03 0.107974955E-02 0.162362773E-02 0.225881161E-02 0.295558246E-02 0.367697934E-02 0.438229321E-02 0.503052725E-02 0.558360480E-02 0.600913540E-02 0.628266623E-02 0.638930360E-02 0.632466283E-02 0.609509367E-02 0.571714249E-02 0.521624275E-02 0.462467596E-02 0.397890247E-02 0.331644854E-02 0.267265411E-02 0.207764399E-02 0.155392906E-02 0.111499941E-02 0.781556882E-03 0.534396095E-03 0.355861848E-03 0.230369988E-03 0.144679070E-03 0.879451327E-04 0.516056643E-04 0.291443503E-04 0.157864561E-04 0.816890861E-05 0.401974330E-05 0.187096464E-05 0.818544322E-06 0.334121410E-06 0.126122757E-06 0.435539675E-07 0.135776981E-07 0.375741127E-08 0.903067066E-09 0.183003682E-09 0.299685277E-10 0.371169718E-11 0.700157651E-12 0.127019742E-09 0.179406712E-09 0.829441713E-12 0.114824534E-11 0.952364229E-11 0.598341168E-10 0.303894798E-09 0.130183797E-08 0.484505724E-08 0.160115672E-07 0.477806381E-07 0.130474419E-06 0.329555348E-06 0.776805734E-06 0.172145371E-05 0.360907256E-05 0.719665240E-05 0.137116658E-04 0.250608100E-04 0.440899494E-04 0.748907696E-04 0.123141304E-03 0.196458452E-03 0.304729678E-03 0.460382202E-03 0.678540149E-03 0.977016054E-03 0.137608522E-02 0.186083012E-02 0.242224429E-02 0.304230722E-02 0.369463698E-02 0.434622169E-02 0.495999772E-02 0.549794361E-02 0.592432870E-02 0.620878255E-02 0.632895622E-02 0.627251063E-02 0.603843806E-02 0.563750928E-02 0.509192236E-02 0.443403237E-02 0.370429480E-02 0.294835400E-02 0.221336330E-02 0.154375914E-02 0.976714771E-03 0.537676155E-03 0.236593609E-03 0.656651173E-04 0.534264688E-09
0.304989255E-03 0.810891681E-03 0.156893907E-02 0.259544491E-02 0.387375825E-02 0.535902102E-02 0.698467996E-02 0.866977964E-02 0.103262858E-01 0.118659399E-01 0.132063394E-01 0.142760603E-01 0.150188310E-01 0.153966518E-01 0.153919058E-01 0.150083993E-01 0.142712053E-01 0.132252621E-01 0.119325565E-01 0.104679139E-01 0.891344156E-02 0.735201174E-02 0.586030446E-02 0.450227037E-02 0.332397735E-02 0.239394442E-02 0.167949591E-02 0.114593876E-02 0.759078248E-03 0.487171317E-03 0.302245287E-03 0.180800052E-03 0.103972554E-03 0.572866229E-04 0.301239779E-04 0.150500837E-04 0.710642598E-05 0.315187344E-05 0.130350907E-05 0.498285090E-06 0.174192991E-06 0.549600045E-07 0.153916151E-07 0.374376041E-08 0.767928776E-09 0.127334004E-09 0.159745637E-10 0.184659362E-11 0.162114155E-09 0.228828553E-09 0.135175118E-11 0.501222067E-11 0.410787931E-10 0.254940125E-09 0.127962430E-08 0.541896927E-08 0.199400905E-07 0.651534364E-07 0.192211218E-06 0.518760771E-06 0.129456294E-05 0.301333421E-05 0.659036141E-05 0.136264207E-04 0.267756095E-04 0.502263356E-04 0.902901957E-04 0.156072070E-03 0.260169676E-03 0.419320917E-03 0.654893694E-03 0.993090915E-03 0.146474014E-02 0.210454944E-02 0.294974144E-02 0.403804472E-02 0.531563815E-02 0.674688863E-02 0.827693474E-02 0.983529445E-02 0.113413204E-01 0.127106840E-01 0.138621209E-01 0.147237321E-01 0.152383670E-01 0.153678544E-01 0.150958151E-01 0.144292787E-01 0.133988447E-01 0.120575903E-01 0.104784733E-01 0.875046756E-02 0.697308732E-02 0.524933496E-02 0.367729785E-02 0.234065601E-02 0.129875715E-02 0.577480940E-03 0.162747732E-03 0.127225608E-08
0.658686738E-03 0.172271708E-02 0.329274521E-02 0.539500499E-02 0.799016561E-02 0.109860767E-01 0.142523134E-01 0.176347587E-01 0.209690500E-01 0.240922701E-01 0.268527176E-01 0.291176736E-01 0.307795908E-01 0.317607373E-01 0.320166647E-01 0.315383747E-01 0.303533468E-01 0.285249278E-01 0.261499174E-01 0.233538449E-01 0.202836525E-01 0.170977507E-01 0.139538860E-01 0.109959366E-01 0.834129658E-02 0.616562366E-02 0.443433831E-02 0.309806922E-02 0.209888420E-02 0.137611048E-02 0.871180440E-03 0.531185069E-03 0.311031996E-03 0.174317625E-03 0.931516988E-04 0.472526117E-04 0.226358807E-04 0.101779688E-04 0.426460383E-05 0.165075767E-05 0.584105010E-06 0.186476598E-06 0.528314956E-07 0.129991715E-07 0.269743894E-08 0.452564569E-09 0.574643631E-10 0.551661147E-11 0.198858402E-09 0.280413470E-09 0.267215395E-11 0.182825196E-10 0.148103529E-09 0.908670528E-09 0.451026061E-08 0.188911624E-07 0.687554689E-07 0.222185676E-06 0.648133096E-06 0.172909165E-05 0.426334873E-05 0.979984179E-05 0.211519564E-04 0.431299668E-04 0.835109095E-04 0.154226422E-03 0.272695208E-03 0.463158911E-03 0.757814036E-03 0.119747105E-02 0.183144957E-02 0.271642255E-02 0.391400093E-02 0.548698334E-02 0.749435788E-02 0.998539198E-02 0.128141474E-01 0.158821791E-01 0.190594085E-01 0.221944600E-01 0.251268428E-01 0.276993234E-01 0.297692083E-01 0.312176850E-01 0.319569521E-01 0.319352224E-01 0.311395042E-01 0.295969602E-01 0.273743719E-01 0.245762169E-01 0.213407036E-01 0.178341120E-01 0.142423837E-01 0.107597737E-01 0.757448236E-02 0.485135894E-02 0.271242624E-02 0.121734058E-02 0.347410096E-03 0.259957611E-08
0.126783736E-02 0.326331495E-02 0.616354169E-02 0.100020496E-01 0.146950549E-01 0.200708192E-01 0.258987918E-01 0.319159254E-01 0.378489085E-01 0.434318110E-01 0.484195501E-01 0.525977127E-01 0.557897612E-01 0.578623228E-01 0.587291829E-01 0.583544932E-01 0.567552038E-01 0.540024973E-01 0.502215289E-01 0.455886088E-01 0.403247029E-01 0.346842445E-01 0.289388783E-01 0.233567208E-01 0.181791205E-01 0.137757780E-01 0.101479162E-01 0.725494279E-02 0.502454257E-02 0.336424983E-02 0.217284798E-02 0.135025627E-02 0.805000251E-03 0.458920986E-03 0.249227451E-03 0.128370215E-03 0.623906817E-04 0.284411617E-04 0.120737313E-04 0.473229329E-05 0.169470047E-05 0.547356990E-06 0.156840954E-06 0.390235364E-07 0.818806711E-08 0.138917244E-08 0.178400766E-09 0.161283816E-10 0.237573627E-09 0.334396150E-09 0.620747984E-11 0.575194961E-10 0.460852551E-09 0.279712986E-08 0.137369423E-07 0.569310536E-07 0.205007069E-06 0.655343115E-06 0.189052207E-05 0.498574673E-05 0.121463663E-04 0.275707189E-04 0.587256400E-04 0.118082724E-03 0.225285068E-03 0.409595465E-03 0.712332199E-03 0.118884479E-02 0.190946914E-02 0.295884511E-02 0.443306006E-02 0.643426040E-02 0.906272884E-02 0.124068409E-01 0.165318102E-01 0.214685071E-01 0.268962421E-01 0.326006636E-01 0.383281298E-01 0.438069105E-01 0.487681776E-01 0.529644080E-01 0.561839305E-01 0.582613237E-01 0.590841062E-01 0.585967079E-01 0.568019412E-01 0.537615530E-01 0.495952182E-01 0.444784798E-01 0.386384726E-01 0.323476195E-01 0.259131752E-01 0.196614955E-01 0.139164543E-01 0.897108205E-02 0.505304988E-02 0.228688400E-02 0.659277081E-03 0.470729278E-08
0.222536502E-02 0.563897891E-02 0.105266757E-01 0.169181917E-01 0.246503782E-01 0.334273353E-01 0.428735986E-01 0.525777563E-01 0.621259138E-01 0.711255446E-01 0.792215094E-01 0.861059725E-01 0.915243402E-01 0.952789560E-01 0.972317830E-01 0.973072723E-01 0.954957902E-01 0.918574929E-01 0.865260512E-01 0.797107369E-01 0.716948956E-01 0.628284067E-01 0.535118468E-01 0.441712514E-01 0.352243707E-01 0.273335464E-01 0.206055827E-01 0.150643196E-01 0.106602702E-01 0.728688901E-02 0.480039604E-02 0.303991558E-02 0.184519310E-02 0.107001897E-02 0.590574404E-03 0.308887480E-03 0.152322638E-03 0.704004124E-04 0.302798726E-04 0.120171344E-04 0.435516813E-05 0.142288036E-05 0.412273948E-06 0.103697268E-06 0.219921255E-07 0.377107678E-08 0.489503049E-09 0.435566097E-10 0.278838314E-09 0.391104232E-09 0.151741033E-10 0.159838712E-09 0.126743915E-08 0.761438379E-08 0.370161395E-07 0.151846038E-06 0.541133545E-06 0.171147508E-05 0.488307614E-05 0.127308340E-04 0.306448092E-04 0.686876228E-04 0.144372199E-03 0.286250433E-03 0.538084656E-03 0.963087368E-03 0.164741336E-02 0.270183641E-02 0.426046178E-02 0.647544302E-02 0.950713642E-02 0.135097709E-01 0.186136663E-01 0.249058697E-01 0.324118845E-01 0.410814658E-01 0.503184460E-01 0.597336814E-01 0.689064562E-01 0.774184316E-01 0.848821700E-01 0.909623057E-01 0.953891054E-01 0.979658216E-01 0.985715762E-01 0.971620679E-01 0.937687680E-01 0.884989351E-01 0.815352052E-01 0.731355399E-01 0.636310577E-01 0.534219481E-01 0.429673791E-01 0.327670053E-01 0.233319309E-01 0.151423998E-01 0.859145448E-02 0.391794881E-02 0.113855931E-02 0.773804842E-08
0.362447742E-02 0.904356781E-02 0.166884009E-01 0.265611727E-01 0.383682624E-01 0.516321883E-01 0.657812655E-01 0.802165195E-01 0.943578780E-01 0.107673042E+00 0.119693317E+00 0.130020052E+00 0.138325900E+00 0.144353494E+00 0.147913858E+00 0.148886651E+00 0.147222802E+00 0.142950192E+00 0.136181995E+00 0.127125978E+00 0.116092414E+00 0.103496440E+00 0.898504779E-01 0.757425427E-01 0.617976114E-01 0.490504205E-01 0.378073417E-01 0.282459985E-01 0.204135198E-01 0.142404633E-01 0.956652127E-02 0.617273664E-02 0.381443719E-02 0.224999711E-02 0.126211403E-02 0.670343463E-03 0.335418707E-03 0.157178816E-03 0.684953193E-04 0.275241146E-04 0.100941452E-04 0.333552362E-05 0.977072432E-06 0.248373766E-06 0.532225961E-07 0.921977694E-08 0.120897192E-08 0.107518973E-09 0.323694765E-09 0.451027771E-09 0.360929585E-10 0.399564937E-09 0.313755311E-08 0.186669986E-07 0.898636117E-07 0.364992047E-06 0.128755187E-05 0.402963042E-05 0.113720807E-04 0.293115336E-04 0.697149590E-04 0.154297348E-03 0.320016785E-03 0.625634333E-03 0.115869136E-02 0.204158924E-02 0.343497307E-02 0.553636672E-02 0.857224315E-02 0.127823995E-01 0.183968637E-01 0.256070793E-01 0.345348716E-01 0.452038608E-01 0.575184710E-01 0.712550431E-01 0.854498520E-01 0.994943678E-01 0.112781815E+00 0.124750450E+00 0.134913698E+00 0.142876670E+00 0.148342341E+00 0.151110545E+00 0.151073813E+00 0.148213357E+00 0.142595977E+00 0.134374991E+00 0.123792730E+00 0.111185730E+00 0.969887599E-01 0.817372054E-01 0.660618916E-01 0.506714433E-01 0.363175198E-01 0.237368103E-01 0.135656651E-01 0.622971775E-02 0.182161189E-02 0.117628032E-07
0.555191981E-02 0.136420727E-01 0.248875581E-01 0.392230973E-01 0.561554469E-01 0.749564320E-01 0.948037431E-01 0.114876464E+00 0.134413689E+00 0.152744979E+00 0.169301271E+00 0.183613047E+00 0.195302516E+00 0.204073131E+00 0.209700495E+00 0.212026790E+00 0.210960299E+00 0.206480742E+00 0.198651224E+00 0.187635273E+00 0.173716649E+00 0.157317638E+00 0.139008358E+00 0.119500019E+00 0.996137634E-01 0.807826445E-01 0.636077523E-01 0.485300384E-01 0.358008221E-01 0.254784431E-01 0.174497552E-01 0.114705134E-01 0.721552828E-02 0.432914961E-02 0.246801390E-02 0.133113412E-02 0.675836229E-03 0.321103347E-03 0.141772529E-03 0.576806378E-04 0.214043248E-04 0.715268880E-05 0.211784732E-05 0.543950648E-06 0.117732249E-06 0.205951007E-07 0.272673284E-08 0.243698894E-09 0.373943182E-09 0.514920717E-09 0.809412190E-10 0.911607123E-09 0.709267667E-08 0.418089172E-07 0.199384786E-06 0.802055979E-06 0.280131189E-05 0.867690233E-05 0.242235019E-04 0.617302212E-04 0.145072481E-03 0.317051978E-03 0.648857851E-03 0.125076750E-02 0.228225277E-02 0.395872910E-02 0.655163033E-02 0.103785889E-01 0.157816317E-01 0.230932888E-01 0.325933062E-01 0.444614515E-01 0.587340631E-01 0.752727166E-01 0.937524438E-01 0.113673247E+00 0.133654445E+00 0.152859926E+00 0.170518488E+00 0.185966969E+00 0.198670894E+00 0.208227158E+00 0.214355409E+00 0.216884762E+00 0.215740651E+00 0.210936353E+00 0.202568680E+00 0.190822482E+00 0.175979033E+00 0.158430889E+00 0.138696387E+00 0.117434666E+00 0.954516083E-01 0.736891478E-01 0.531894192E-01 0.350215882E-01 0.201610643E-01 0.931905117E-02 0.273778383E-02 0.167762622E-07
0.808327924E-02 0.195604526E-01 0.352804810E-01 0.550520606E-01 0.780951530E-01 0.103353061E+00 0.129700124E+00 0.156069100E+00 0.181518599E+00 0.205259055E+00 0.226651937E+00 0.245193899E+00 0.260494649E+00 0.272253871E+00 0.280241340E+00 0.284282655E+00 0.284253180E+00 0.280080140E+00 0.271755636E+00 0.259359598E+00 0.243090987E+00 0.223304600E+00 0.200544387E+00 0.175563246E+00 0.149315298E+00 0.123578265E+00 0.993124023E-01 0.773252621E-01 0.581963621E-01 0.422357284E-01 0.294823386E-01 0.197397545E-01 0.126387579E-01 0.771234930E-02 0.446825800E-02 0.244722050E-02 0.126069388E-02 0.607286929E-03 0.271643396E-03 0.111889443E-03 0.420076140E-04 0.141939454E-04 0.424720793E-05 0.110189819E-05 0.240813989E-06 0.425226716E-07 0.568162495E-08 0.511274800E-09 0.432509667E-09 0.583930460E-09 0.169870881E-09 0.192040317E-08 0.148121577E-07 0.865447518E-07 0.409008010E-06 0.162997662E-05 0.563781259E-05 0.172858508E-04 0.477435751E-04 0.120302968E-03 0.279375905E-03 0.602925720E-03 0.121758447E-02 0.231427746E-02 0.416059885E-02 0.710495049E-02 0.115672257E-01 0.180120040E-01 0.269032475E-01 0.386435278E-01 0.535057262E-01 0.715686232E-01 0.926695243E-01 0.116385363E+00 0.142048940E+00 0.168799907E+00 0.194863722E+00 0.219219193E+00 0.240998328E+00 0.259514004E+00 0.274258405E+00 0.284882814E+00 0.291169643E+00 0.293004781E+00 0.290356457E+00 0.283263892E+00 0.271834433E+00 0.256254077E+00 0.236805558E+00 0.213895753E+00 0.188086525E+00 0.160128340E+00 0.130985484E+00 0.101841077E+00 0.740682855E-01 0.491465442E-01 0.285013206E-01 0.132557722E-01 0.390789704E-02 0.227073560E-07
0.112804398E-01 0.268815216E-01 0.479378402E-01 0.740538314E-01 0.104059488E+00 0.136487842E+00 0.169864804E+00 0.202867314E+00 0.234392151E+00 0.263567686E+00 0.289733142E+00 0.312401891E+00 0.331220806E+00 0.345931232E+00 0.356336325E+00 0.362276793E+00 0.363616526E+00 0.360239923E+00 0.352061927E+00 0.339053124E+00 0.321278960E+00 0.298953235E+00 0.272497386E+00 0.242595211E+00 0.210223645E+00 0.177366480E+00 0.145348251E+00 0.115407795E+00 0.885649621E-01 0.655192062E-01 0.465994067E-01 0.317721739E-01 0.207020845E-01 0.128466729E-01 0.756323477E-02 0.420599524E-02 0.219831546E-02 0.107354659E-02 0.486456207E-03 0.202831943E-03 0.770337065E-04 0.263139391E-04 0.795545930E-05 0.208429242E-05 0.459791096E-06 0.819217547E-07 0.110413643E-07 0.100094810E-08 0.503849296E-09 0.659743316E-09 0.334207273E-09 0.377109277E-08 0.288490245E-07 0.167147277E-06 0.783088296E-06 0.309259758E-05 0.105956651E-04 0.321638545E-04 0.879043509E-04 0.219040565E-03 0.502694165E-03 0.107137568E-02 0.213512126E-02 0.400181301E-02 0.708896015E-02 0.119190263E-01 0.190913491E-01 0.292271432E-01 0.428901762E-01 0.604927540E-01 0.822030976E-01 0.107873462E+00 0.137006715E+00 0.168772891E+00 0.202076107E+00 0.235661417E+00 0.267468184E+00 0.296384245E+00 0.321549624E+00 0.342351854E+00 0.358391315E+00 0.369432837E+00 0.375357330E+00 0.376122296E+00 0.371735036E+00 0.362241566E+00 0.347728044E+00 0.328339368E+00 0.304308832E+00 0.276001513E+00 0.243965149E+00 0.208989054E+00 0.172157288E+00 0.134881258E+00 0.988902599E-01 0.661469400E-01 0.386482626E-01 0.180821363E-01 0.534414453E-02 0.294378033E-07