<?xml version="1.0"?>
<VTKFile type="StructuredGrid">
<StructuredGrid WholeExtent="     0   100     0   100     0     0">
<Piece Extent="     0   100     0   100     0     0">
<Points>
<DataArray type="Float32" NumberOfComponents="3"/>
0.000000000E+00 0.000000000E+00 0.000000000E+00 0.199999996E-01 0.000000000E+00 0.000000000E+00 0.399999991E-01 0.000000000E+00 0.000000000E+00 0.599999987E-01 0.000000000E+00 0.000000000E+00 0.799999982E-01 0.000000000E+00 0.000000000E+00 0.100000001E+00 0.000000000E+00 0.000000000E+00 0.119999997E+00 0.000000000E+00 0.000000000E+00 0.140000001E+00 0.000000000E+00 0.000000000E+00 0.159999996E+00 0.000000000E+00 0.000000000E+00 0.180000007E+00 0.000000000E+00 0.000000000E+00 0.200000003E+00 0.000000000E+00 0.000000000E+00 0.219999999E+00 0.000000000E+00 0.000000000E+00 0.239999995E+00 0.000000000E+00 0.000000000E+00 0.259999990E+00 0.000000000E+00 0.000000000E+00 0.280000001E+00 0.000000000E+00 0.000000000E+00 0.300000012E+00 0.000000000E+00 0.000000000E+00 0.319999993E+00 0.000000000E+00 0.000000000E+00 0.340000004E+00 0.000000000E+00 0.000000000E+00 0.360000014E+00 0.000000000E+00 0.000000000E+00 0.379999995E+00 0.000000000E+00 0.000000000E+00 0.400000006E+00 0.000000000E+00 0.000000000E+00 0.419999987E+00 0.000000000E+00 0.000000000E+00 0.439999998E+00 0.000000000E+00 0.000000000E+00 0.460000008E+00 0.000000000E+00 0.000000000E+00 0.479999989E+00 0.000000000E+00 0.000000000E+00 0.500000000E+00 0.000000000E+00 0.000000000E+00 0.519999981E+00 0.000000000E+00 0.000000000E+00 0.540000021E+00 0.000000000E+00 0.000000000E+00 0.560000002E+00 0.000000000E+00 0.000000000E+00 0.579999983E+00 0.000000000E+00 0.000000000E+00 0.600000024E+00 0.000000000E+00 0.000000000E+00 0.620000005E+00 0.000000000E+00 0.000000000E+00 0.639999986E+00 0.000000000E+00 0.000000000E+00 0.660000026E+00 0.000000000E+00 0.000000000E+00 0.680000007E+00 0.000000000E+00 0.000000000E+00 0.699999988E+00 0.000000000E+00 0.000000000E+00 0.720000029E+00 0.000000000E+00 0.000000000E+00 0.740000010E+00 0.000000000E+00 0.000000000E+00 0.759999990E+00 0.000000000E+00 0.000000000E+00 0.779999971E+00 0.000000000E+00 0.000000000E+00 0.800000012E+00 0.000000000E+00 0.000000000E+00 0.819999993E+00 0.000000000E+00 0.000000000E+00 0.839999974E+00 0.000000000E+00 0.000000000E+00 0.860000014E+00 0.000000000E+00 0.000000000E+00 0.879999995E+00 0.000000000E+00 0.000000000E+00 0.899999976E+00 0.000000000E+00 0.000000000E+00 0.920000017E+00 0.000000000E+00 0.000000000E+00 0.939999998E+00 0.000000000E+00 0.000000000E+00 0.959999979E+00 0.000000000E+00 0.000000000E+00 0.980000019E+00 0.000000000E+00 0.000000000E+00 0.100000000E+01 0.000000000E+00 0.000000000E+00 0.101999998E+01 0.000000000E+00 0.000000000E+00 0.103999996E+01 0.000000000E+00 0.000000000E+00 0.105999994E+01 0.000000000E+00 0.000000000E+00 0.108000004E+01 0.000000000E+00 0.000000000E+00 0.110000002E+01 0.000000000E+00 0.000000000E+00 0.112000000E+01 0.000000000E+00 0.000000000E+00 0.113999999E+01 0.000000000E+00 0.000000000E+00 0.115999997E+01 0.000000000E+00 0.000000000E+00 0.117999995E+01 0.000000000E+00 0.000000000E+00 0.120000005E+01 0.000000000E+00 0.000000000E+00 0.122000003E+01 0.000000000E+00 0.000000000E+00 0.124000001E+01 0.000000000E+00 0.000000000E+00 0.125999999E+01 0.000000000E+00 0.000000000E+00 0.127999997E+01 0.000000000E+00 0.000000000E+00 0.129999995E+01 0.000000000E+00 0.000000000E+00 0.132000005E+01 0.000000000E+00 0.000000000E+00 0.134000003E+01 0.000000000E+00 0.000000000E+00 0.136000001E+01 0.000000000E+00 0.000000000E+00 0.138000000E+01 0.000000000E+00 0.000000000E+00 0.139999998E+01 0.000000000E+00 0.000000000E+00 0.141999996E+01 0.000000000E+00 0.000000000E+00 0.144000006E+01 0.000000000E+00 0.000000000E+00 0.146000004E+01 0.000000000E+00 0.000000000E+00 0.148000002E+01 0.000000000E+00 0.000000000E+00 0.150000000E+01 0.000000000E+00 0.000000000E+00 0.151999998E+01 0.000000000E+00 0.000000000E+00 0.153999996E+01 0.000000000E+00 0.000000000E+00 0.155999994E+01 0.000000000E+00 0.000000000E+00 0.158000004E+01 0.000000000E+00 0.000000000E+00 0.160000002E+01 0.000000000E+00 0.000000000E+00 0.162000000E+01 0.000000000E+00 0.000000000E+00 0.163999999E+01 0.000000000E+00 0.000000000E+00 0.165999997E+01 0.000000000E+00 0.000000000E+00 0.167999995E+01 0.000000000E+00 0.000000000E+00 0.170000005E+01 0.000000000E+00 0.000000000E+00 0.172000003E+01 0.000000000E+00 0.000000000E+00 0.174000001E+01 0.000000000E+00 0.000000000E+00 0.175999999E+01 0.000000000E+00 0.000000000E+00 0.177999997E+01 0.000000000E+00 0.000000000E+00 0.179999995E+01 0.000000000E+00 0.000000000E+00 0.182000005E+01 0.000000000E+00 0.000000000E+00 0.184000003E+01 0.000000000E+00 0.000000000E+00 0.186000001E+01 0.000000000E+00 0.000000000E+00 0.188000000E+01 0.000000000E+00 0.000000000E+00 0.189999998E+01 0.000000000E+00 0.000000000E+00 0.191999996E+01 0.000000000E+00 0.000000000E+00 0.194000006E+01 0.000000000E+00 0.000000000E+00 0.196000004E+01 0.000000000E+00 0.000000000E+00 0.198000002E+01 0.000000000E+00 0.000000000E+00 0.200000000E+01 0.000000000E+00 0.000000000E+00
0.000000000E+00 0.999999978E-02 0.000000000E+00 0.199999996E-01 0.999999978E-02 0.000000000E+00 0.399999991E-01 0.999999978E-02 0.000000000E+00 0.599999987E-01 0.999999978E-02 0.000000000E+00 0.799999982E-01 0.999999978E-02 0.000000000E+00 0.100000001E+00 0.999999978E-02 0.000000000E+00 0.119999997E+00 0.999999978E-02 0.000000000E+00 0.140000001E+00 0.999999978E-02 0.000000000E+00 0.159999996E+00 0.999999978E-02 0.000000000E+00 0.180000007E+00 0.999999978E-02 0.000000000E+00 0.200000003E+00 0.999999978E-02 0.000000000E+00 0.219999999E+00 0.999999978E-02 0.000000000E+00 0.239999995E+00 0.999999978E-02 0.000000000E+00 0.259999990E+00 0.999999978E-02 0.000000000E+00 0.280000001E+00 0.999999978E-02 0.000000000E+00 0.300000012E+00 0.999999978E-02 0.000000000E+00 0.319999993E+00 0.999999978E-02 0.000000000E+00 0.340000004E+00 0.999999978E-02 0.000000000E+00 0.360000014E+00 0.999999978E-02 0.000000000E+00 0.379999995E+00 0.999999978E-02 0.000000000E+00 0.400000006E+00 0.999999978E-02 0.000000000E+00 0.419999987E+00 0.999999978E-02 0.000000000E+00 0.439999998E+00 0.999999978E-02 0.000000000E+00 0.460000008E+00 0.999999978E-02 0.000000000E+00 0.479999989E+00 0.999999978E-02 0.000000000E+00 0.500000000E+00 0.999999978E-02 0.000000000E+00 0.519999981E+00 0.999999978E-02 0.000000000E+00 0.540000021E+00 0.999999978E-02 0.000000000E+00 0.560000002E+00 0.999999978E-02 0.000000000E+00 0.579999983E+00 0.999999978E-02 0.000000000E+00 0.600000024E+00 0.999999978E-02 0.000000000E+00 0.620000005E+00 0.999999978E-02 0.000000000E+00 0.639999986E+00 0.999999978E-02 0.000000000E+00 0.660000026E+00 0.999999978E-02 0.000000000E+00 0.680000007E+00 0.999999978E-02 0.000000000E+00 0.699999988E+00 0.999999978E-02 0.000000000E+00 0.720000029E+00 0.999999978E-02 0.000000000E+00 0.740000010E+00 0.999999978E-02 0.000000000E+00 0.759999990E+00 0.999999978E-02 0.000000000E+00 0.779999971E+00 0.999999978E-02 0.000000000E+00 0.800000012E+00 0.999999978E-02 0.000000000E+00 0.819999993E+00 0.999999978E-02 0.000000000E+00 0.839999974E+00 0.999999978E-02 0.000000000E+00 0.860000014E+00 0.999999978E-02 0.000000000E+00 0.879999995E+00 0.999999978E-02 0.000000000E+00 0.899999976E+00 0.999999978E-02 0.000000000E+00 0.920000017E+00 0.999999978E-02 0.000000000E+00 0.939999998E+00 0.999999978E-02 0.000000000E+00 0.959999979E+00 0.999999978E-02 0.000000000E+00 0.980000019E+00 0.999999978E-02 0.000000000E+00 0.100000000E+01 0.999999978E-02 0.000000000E+00 0.101999998E+01 0.999999978E-02 0.000000000E+00 0.103999996E+01 0.999999978E-02 0.000000000E+00 0.105999994E+01 0.999999978E-02 0.000000000E+00 0.108000004E+01 0.999999978E-02 0.000000000E+00 0.110000002E+01 0.999999978E-02 0.000000000E+00 0.112000000E+01 0.999999978E-02 0.000000000E+00 0.113999999E+01 0.999999978E-02 0.000000000E+00 0.115999997E+01 0.999999978E-02 0.000000000E+00 0.117999995E+01 0.999999978E-02 0.000000000E+00 0.120000005E+01 0.999999978E-02 0.000000000E+00 0.122000003E+01 0.999999978E-02 0.000000000E+00 0.124000001E+01 0.999999978E-02 0.000000000E+00 0.125999999E+01 0.999999978E-02 0.000000000E+00 0.127999997E+01 0.999999978E-02 0.000000000E+00 0.129999995E+01 0.999999978E-02 0.000000000E+00 0.132000005E+01 0.999999978E-02 0.000000000E+00 0.134000003E+01 0.999999978E-02 0.000000000E+00 0.136000001E+01 0.999999978E-02 0.000000000E+00 0.138000000E+01 0.999999978E-02 0.000000000E+00 0.139999998E+01 0.999999978E-02 0.000000000E+00 0.141999996E+01 0.999999978E-02 0.000000000E+00 0.144000006E+01 0.999999978E-02 0.000000000E+00 0.146000004E+01 0.999999978E-02 0.000000000E+00 0.148000002E+01 0.999999978E-02 0.000000000E+00 0.150000000E+01 0.999999978E-02 0.000000000E+00 0.151999998E+01 0.999999978E-02 0.000000000E+00 0.153999996E+01 0.999999978E-02 0.000000000E+00 0.155999994E+01 0.999999978E-02 0.000000000E+00 0.158000004E+01 0.999999978E-02 0.000000000E+00 0.160000002E+01 0.999999978E-02 0.000000000E+00 0.162000000E+01 0.999999978E-02 0.000000000E+00 0.163999999E+01 0.999999978E-02 0.000000000E+00 0.165999997E+01 0.999999978E-02 0.000000000E+00 0.167999995E+01 0.999999978E-02 0.000000000E+00 0.170000005E+01 0.999999978E-02 0.000000000E+00 0.172000003E+01 0.999999978E-02 0.000000000E+00 0.174000001E+01 0.999999978E-02 0.000000000E+00 0.175999999E+01 0.999999978E-02 0.000000000E+00 0.177999997E+01 0.999999978E-02 0.000000000E+00 0.179999995E+01 0.999999978E-02 0.000000000E+00 0.182000005E+01 0.999999978E-02 0.000000000E+00 0.184000003E+01 0.999999978E-02 0.000000000E+00 0.186000001E+01 0.999999978E-02 0.000000000E+00 0.188000000E+01 0.999999978E-02 0.000000000E+00 0.189999998E+01 0.999999978E-02 0.000000000E+00 0.191999996E+01 0.999999978E-02 0.000000000E+00 0.194000006E+01 0.999999978E-02 0.000000000E+00 0.196000004E+01 0.999999978E-02 0.000000000E+00 0.198000002E+01 0.999999978E-02 0.000000000E+00 0.200000000E+01 0.999999978E-02 0.000000000E+00
[...]
<CellData Scalars="Temperature, U, V">
<DataArray type="Float32" Name="Temp, K"/>
0.151867449E-25 0.879811736E-24 0.244936688E-22 0.375371144E-21 0.346208893E-20 0.205881442E-19 0.837164747E-19 0.245090850E-18 0.540199191E-18 0.930491852E-18 0.129106815E-17 0.147804685E-17 0.142265832E-17 0.116831507E-17 0.828003399E-18 0.510955978E-18 0.276451490E-18 0.131844059E-18 0.556521235E-19 0.208548921E-19 0.695331496E-20 0.206571495E-20 0.547276254E-21 0.129336547E-21 0.272594388E-22 0.555391801E-23 0.108995679E-23 0.205261916E-24 0.369458629E-25 0.632909152E-26 0.102722911E-26 0.157190923E-27 0.225596663E-28 0.301919423E-29 0.374431250E-30 0.427328696E-31 0.445355761E-32 0.420183900E-33 0.355370510E-34 0.266387260E-35 0.118784936E-35 0.979573203E-30 0.488719743E-24 0.340081799E-21 0.931025595E-16 0.196265665E-13 0.191978464E-11 0.103683562E-09 0.303004666E-08 0.427841274E-08 0.199549585E-09 0.494063341E-11 0.712562469E-13 0.583644770E-15 0.218350080E-17 0.830756913E-23 0.103877990E-25 0.213894671E-31 0.273376089E-36 0.347791571E-35 0.427218097E-34 0.469815842E-33 0.467178410E-32 0.423771679E-31 0.353408215E-30 0.272881534E-29 0.196334189E-28 0.132395069E-27 0.841253807E-27 0.506187545E-26 0.289750952E-25 0.158466773E-24 0.831403878E-24 0.420062082E-23 0.205130562E-22 0.971596306E-22 0.411503649E-21 0.155835314E-20 0.527352197E-20 0.159277617E-19 0.428552485E-19 0.102440871E-18 0.216754783E-18 0.404005894E-18 0.659172527E-18 0.933864578E-18 0.113688355E-17 0.117349570E-17 0.100949370E-17 0.707915075E-18 0.393416250E-18 0.167228856E-18 0.520596329E-19 0.112739863E-19 0.160012738E-20 0.138748832E-21 0.671501674E-23 0.157715284E-24 0.132302547E-26 0.101761003E-32
0.828245871E-24 0.431292724E-22 0.109187134E-20 0.154033147E-19 0.132496847E-18 0.744939524E-18 0.290301766E-17 0.824999172E-17 0.178536099E-16 0.304923655E-16 0.422981883E-16 0.487481259E-16 0.475105313E-16 0.397014103E-16 0.287518717E-16 0.181968121E-16 0.101299631E-16 0.498512432E-17 0.217698779E-17 0.846023632E-18 0.293183079E-18 0.907214731E-19 0.250854476E-19 0.619969365E-20 0.136912396E-20 0.292180120E-21 0.600484203E-22 0.118419839E-22 0.223231504E-23 0.400609773E-24 0.681432779E-25 0.109348494E-25 0.164691681E-26 0.231515340E-27 0.301911908E-28 0.362773318E-29 0.398629507E-30 0.397187904E-31 0.355402489E-32 0.282431734E-33 0.437496443E-32 0.371071388E-26 0.164562474E-20 0.659385991E-18 0.306225016E-15 0.523263175E-13 0.476002614E-11 0.249122889E-09 0.719460536E-08 0.101277449E-07 0.472198558E-09 0.118538703E-10 0.176850383E-12 0.156666759E-14 0.742476408E-17 0.141408965E-19 0.301325744E-22 0.695968549E-28 0.112055124E-33 0.367504924E-33 0.426045548E-32 0.443062100E-31 0.417381651E-30 0.359249129E-29 0.284689550E-28 0.209141042E-27 0.143315843E-26 0.921280761E-26 0.558451706E-25 0.320740761E-24 0.175318578E-23 0.915818286E-23 0.458977166E-22 0.221499344E-21 0.103293563E-20 0.467033767E-20 0.189184106E-19 0.686541168E-19 0.223077221E-18 0.648278713E-18 0.168194770E-17 0.388598037E-17 0.796752774E-17 0.144310889E-16 0.229537012E-16 0.318176644E-16 0.380611112E-16 0.387985030E-16 0.331604895E-16 0.232721194E-16 0.130571179E-16 0.566202896E-17 0.181989764E-17 0.412318464E-18 0.620626117E-19 0.578357576E-20 0.304599315E-21 0.787559364E-23 0.735110327E-25 0.599023810E-31
0.283171341E-22 0.133228262E-20 0.308289213E-19 0.402359236E-18 0.324329846E-17 0.173144354E-16 0.649009548E-16 0.179544224E-15 0.382260966E-15 0.648152258E-15 0.899447558E-15 0.104367609E-14 0.102968099E-14 0.875037339E-15 0.647022899E-15 0.419552174E-15 0.240029470E-15 0.121727581E-15 0.549169146E-16 0.220986413E-16 0.794667286E-17 0.255682582E-17 0.736551758E-18 0.190004214E-18 0.438787585E-19 0.978782947E-20 0.210200811E-20 0.433105741E-21 0.853035434E-22 0.159973261E-22 0.284447209E-23 0.477364632E-24 0.752389031E-25 0.110771486E-25 0.151433272E-26 0.190966727E-27 0.220514314E-28 0.231232904E-29 0.218113141E-30 0.183117746E-31 0.476940263E-29 0.185456840E-23 0.598408022E-20 0.224098820E-17 0.679561563E-15 0.102112044E-12 0.878935726E-11 0.448099502E-09 0.128057351E-07 0.179662720E-07 0.837499237E-09 0.212751535E-10 0.326357160E-12 0.306575931E-14 0.166992728E-16 0.478313312E-19 0.108912333E-21 0.284383370E-25 0.773882298E-31 0.237467403E-31 0.260796681E-30 0.257404562E-29 0.230518949E-28 0.188897604E-27 0.142697831E-26 0.100042000E-25 0.654851988E-25 0.402423709E-24 0.233338627E-23 0.128251586E-22 0.671079744E-22 0.335626464E-21 0.161040271E-20 0.743945806E-20 0.331992913E-19 0.143576505E-18 0.557303373E-18 0.194155523E-17 0.606792897E-17 0.169945034E-16 0.425820933E-16 0.952256145E-16 0.189440030E-15 0.333818570E-15 0.518132277E-15 0.703287009E-15 0.827106232E-15 0.832827993E-15 0.707058318E-15 0.496231552E-15 0.280686787E-15 0.123896012E-15 0.409922190E-16 0.967950209E-17 0.153843352E-17 0.153352914E-18 0.874614735E-20 0.247707701E-21 0.255975444E-23 0.220037496E-29
0.679689725E-21 0.290109269E-19 0.616091203E-18 0.746848885E-17 0.566258995E-16 0.288008566E-15 0.104132907E-14 0.281042440E-14 0.589584356E-14 0.993434376E-14 0.137983912E-13 0.161225911E-13 0.160996111E-13 0.139087723E-13 0.104949381E-13 0.696765237E-14 0.409338328E-14 0.213731951E-14 0.995153387E-15 0.414201414E-15 0.154379126E-15 0.515832543E-16 0.154606227E-16 0.415710246E-17 0.100243847E-17 0.233360343E-18 0.522805741E-19 0.112346386E-19 0.230754795E-20 0.451308712E-21 0.837067375E-22 0.146587522E-22 0.241212267E-23 0.371009345E-24 0.530318523E-25 0.699940643E-26 0.846896011E-27 0.931770565E-28 0.923549838E-29 0.822641886E-30 0.252953661E-26 0.896729667E-23 0.145661691E-19 0.510601015E-17 0.126562943E-14 0.174067087E-12 0.143401905E-10 0.714914739E-09 0.202360884E-07 0.282913337E-07 0.131897682E-08 0.338584369E-10 0.531684126E-12 0.522937940E-14 0.312861942E-16 0.108521172E-18 0.263672857E-21 0.136738265E-24 0.331009038E-28 0.105548870E-29 0.110174914E-28 0.103536044E-27 0.884147348E-27 0.691763683E-26 0.499525430E-25 0.335084693E-24 0.210038772E-23 0.123682101E-22 0.687530397E-22 0.362407774E-21 0.181894735E-20 0.872627483E-20 0.401590856E-19 0.177889637E-18 0.760878002E-18 0.315206147E-17 0.117404706E-16 0.393184058E-16 0.118339675E-15 0.319791122E-15 0.774681510E-15 0.167849753E-14 0.324282964E-14 0.556378208E-14 0.843270088E-14 0.112139861E-13 0.129702496E-13 0.129016111E-13 0.108779088E-13 0.762999317E-14 0.434616205E-14 0.194944209E-14 0.662370818E-15 0.162530177E-15 0.271832874E-16 0.288769703E-17 0.177663028E-18 0.549023077E-20 0.625636622E-22 0.565209823E-28
0.122633613E-19 0.476749062E-18 0.932844085E-17 0.105436980E-15 0.754642299E-15 0.366839551E-14 0.128271629E-13 0.338405180E-13 0.700473953E-13 0.117389076E-12 0.163262673E-12 0.192106476E-12 0.194126006E-12 0.170425523E-12 0.131153768E-12 0.890895769E-13 0.537020650E-13 0.288435996E-13 0.138466458E-13 0.595476232E-14 0.229774310E-14 0.796335961E-15 0.248010003E-15 0.694133243E-16 0.174525828E-16 0.423348184E-17 0.987791480E-18 0.220998387E-18 0.472499137E-19 0.961886329E-20 0.185717779E-20 0.338641957E-21 0.580451869E-22 0.930493150E-23 0.138717739E-23 0.191115729E-24 0.241628758E-25 0.278115820E-26 0.288777932E-27 0.292095202E-28 0.144630575E-25 0.270693013E-22 0.296288470E-19 0.974268380E-17 0.213268200E-14 0.274611361E-12 0.218229029E-10 0.106688236E-08 0.299290193E-07 0.416922674E-07 0.194488248E-08 0.504014885E-10 0.807623120E-12 0.824600296E-14 0.528552232E-16 0.206305669E-18 0.533834216E-21 0.411287325E-24 0.191675108E-27 0.345642946E-28 0.343804182E-27 0.308565312E-26 0.251994267E-25 0.188774661E-24 0.130647485E-23 0.840664218E-23 0.505813984E-22 0.286057474E-21 0.152777290E-20 0.773900568E-20 0.373305092E-19 0.172107502E-18 0.761005543E-18 0.323763972E-17 0.132935510E-16 0.528293523E-16 0.189079671E-15 0.609496374E-15 0.176880618E-14 0.461723335E-14 0.108253021E-13 0.227475831E-13 0.427181280E-13 0.714183419E-13 0.105771010E-12 0.137877909E-12 0.156892199E-12 0.154191953E-12 0.129093676E-12 0.904512196E-13 0.518345912E-13 0.235900573E-13 0.821357854E-14 0.208857594E-14 0.366396383E-15 0.413320248E-16 0.273292451E-17 0.917982296E-19 0.114911805E-20 0.108707411E-26
0.173893049E-18 0.618131020E-17 0.111868488E-15 0.118330460E-14 0.802221601E-14 0.373820813E-13 0.126715993E-12 0.327368151E-12 0.669419869E-12 0.111657894E-11 0.155545759E-11 0.184317080E-11 0.188436875E-11 0.168038597E-11 0.131813245E-11 0.915461175E-12 0.565747265E-12 0.312293811E-12 0.154421750E-12 0.685439186E-13 0.273512343E-13 0.982034329E-14 0.317397645E-14 0.923435637E-15 0.241747332E-15 0.610122663E-16 0.148029281E-16 0.344226766E-17 0.764721652E-18 0.161737126E-18 0.324431093E-19 0.614688334E-20 0.109509393E-20 0.182540255E-21 0.283133949E-22 0.406154661E-23 0.535138882E-24 0.642574354E-25 0.696898136E-26 0.692177922E-27 0.500476161E-25 0.652798870E-22 0.543508521E-19 0.168069253E-16 0.336910404E-14 0.411835171E-12 0.317432053E-10 0.152491864E-08 0.424103348E-07 0.588653890E-07 0.274908962E-08 0.718766782E-10 0.117253516E-11 0.123545812E-13 0.835796857E-16 0.354799685E-18 0.975537051E-21 0.989699271E-24 0.733919372E-27 0.870002741E-27 0.828266742E-26 0.712052909E-25 0.557679498E-24 0.401067968E-23 0.266708950E-22 0.165019743E-21 0.955276679E-21 0.519995662E-20 0.267381932E-19 0.130418918E-18 0.605749998E-18 0.268863643E-17 0.114416185E-16 0.468269757E-16 0.184846412E-15 0.705690677E-15 0.243022159E-14 0.754988164E-14 0.211516799E-13 0.533950867E-13 0.121287962E-12 0.247419164E-12 0.452032319E-12 0.736993366E-12 0.106728092E-11 0.136453121E-11 0.152820269E-11 0.148419406E-11 0.123380505E-11 0.863198131E-12 0.497251383E-12 0.229297077E-12 0.816515231E-13 0.214613720E-13 0.393694392E-14 0.469993224E-15 0.332773569E-16 0.121045072E-17 0.165819889E-19 0.163675449E-25
0.200054293E-17 0.652707575E-16 0.109669072E-14 0.108950545E-13 0.701918246E-13 0.314408059E-12 0.103545308E-11 0.262380547E-11 0.530594665E-11 0.881396432E-11 0.123013223E-10 0.146787010E-10 0.151783690E-10 0.137423857E-10 0.109813799E-10 0.779226596E-11 0.493303402E-11 0.279608346E-11 0.142273704E-11 0.651139353E-12 0.268393001E-12 0.997160118E-13 0.334046145E-13 0.100895007E-13 0.274640629E-14 0.720115966E-15 0.181394064E-15 0.437705599E-16 0.100864352E-16 0.221226622E-17 0.460152251E-18 0.904075581E-19 0.167052501E-19 0.288905087E-20 0.465146317E-21 0.693042767E-22 0.949164068E-23 0.118578603E-23 0.133946190E-24 0.136078075E-25 0.136405637E-24 0.137676221E-21 0.932044238E-19 0.271759023E-16 0.508909507E-14 0.595920286E-12 0.447235061E-10 0.211425011E-08 0.583021311E-07 0.806315228E-07 0.377216880E-08 0.994686625E-10 0.164920595E-11 0.178579177E-13 0.126284129E-15 0.572299744E-18 0.166807695E-20 0.208535084E-23 0.347088783E-26 0.174018648E-25 0.158971891E-24 0.131279550E-23 0.988710454E-23 0.684381895E-22 0.438373211E-21 0.261416276E-20 0.145920541E-19 0.766151227E-19 0.380057438E-18 0.178843335E-17 0.801293499E-17 0.342992658E-16 0.140708743E-15 0.554846709E-15 0.210876539E-14 0.774464670E-14 0.256960404E-13 0.770317715E-13 0.208584452E-12 0.509770720E-12 0.112305304E-11 0.222615199E-11 0.396035505E-11 0.630188523E-11 0.892989242E-11 0.112041236E-10 0.123552774E-10 0.118608656E-10 0.979004551E-11 0.683702530E-11 0.395624722E-11 0.184627118E-11 0.671202623E-12 0.181926726E-12 0.347972587E-13 0.438175734E-14 0.331046919E-15 0.129925143E-16 0.194058110E-18 0.199157735E-24
0.191304757E-16 0.575029492E-15 0.900285570E-14 0.842896038E-13 0.517636932E-12 0.223455065E-11 0.716419415E-11 0.178315366E-10 0.356936078E-10 0.590788599E-10 0.826211599E-10 0.992672888E-10 0.103786403E-09 0.953588042E-10 0.775770906E-10 0.562022408E-10 0.364183440E-10 0.211770584E-10 0.110777741E-10 0.522209056E-11 0.222103911E-11 0.852886826E-12 0.295778999E-12 0.926260614E-13 0.261807804E-13 0.712167430E-14 0.185967778E-14 0.464908909E-15 0.110941140E-15 0.251895356E-16 0.542289477E-17 0.110270765E-17 0.210898538E-18 0.377606948E-19 0.629649438E-20 0.972111400E-21 0.138047705E-21 0.178968037E-22 0.209988758E-23 0.220956833E-24 0.335711714E-24 0.265561706E-21 0.152440133E-18 0.420193094E-16 0.744000114E-14 0.839670130E-12 0.615292678E-10 0.286526380E-08 0.783388430E-07 0.107956595E-06 0.506266984E-08 0.134620481E-09 0.226591640E-11 0.251397058E-13 0.184637274E-15 0.883346693E-18 0.272287158E-20 0.402497620E-23 0.329916268E-25 0.283230228E-24 0.248952610E-23 0.198019707E-22 0.143782345E-21 0.960294592E-21 0.593880904E-20 0.342100866E-19 0.184526546E-18 0.936422117E-18 0.449007823E-17 0.204219759E-16 0.884197113E-16 0.365616928E-15 0.144822718E-14 0.551047872E-14 0.201933231E-13 0.714396803E-13 0.228663605E-12 0.662280072E-12 0.173525788E-11 0.411024817E-11 0.879118740E-11 0.169494505E-10 0.293873537E-10 0.456757757E-10 0.633765540E-10 0.780810763E-10 0.848197276E-10 0.805080932E-10 0.659854185E-10 0.459886539E-10 0.267152064E-10 0.126037765E-10 0.467043678E-11 0.130258684E-11 0.259075259E-12 0.343035740E-13 0.275601482E-14 0.116289392E-15 0.188688562E-17 0.200637423E-23
0.155024261E-15 0.430867873E-14 0.630810982E-13 0.558433074E-12 0.327849813E-11 0.136720843E-10 0.427508029E-10 0.104650212E-09 0.207518683E-09 0.342376238E-09 0.479816353E-09 0.580356485E-09 0.613293749E-09 0.571543479E-09 0.473069861E-09 0.349656887E-09 0.231724695E-09 0.138115672E-09 0.742042747E-10 0.359933507E-10 0.157790482E-10 0.625551564E-11 0.224312019E-11 0.727400724E-12 0.213207856E-12 0.600839772E-13 0.162409199E-13 0.419991207E-14 0.103616323E-14 0.243132258E-15 0.540783024E-16 0.113595828E-16 0.224431988E-17 0.415162880E-18 0.715420951E-19 0.114193172E-19 0.167745917E-20 0.225110913E-21 0.273639250E-22 0.298368908E-23 0.953266223E-24 0.480764147E-21 0.240755932E-18 0.628942676E-16 0.106118193E-13 0.115917833E-11 0.831013452E-10 0.381453180E-08 0.103386164E-06 0.141975406E-06 0.667866207E-08 0.179089812E-09 0.305777517E-11 0.346863245E-13 0.263404641E-15 0.132082825E-17 0.429596292E-20 0.732714282E-23 0.412980936E-24 0.382271739E-23 0.324173459E-22 0.249010369E-21 0.174751436E-20 0.112880920E-19 0.675536693E-19 0.376711725E-18 0.196757440E-17 0.966971737E-17 0.449013985E-16 0.197743600E-15 0.828759535E-15 0.331586696E-14 0.127014920E-13 0.467034384E-13 0.165248999E-12 0.563904446E-12 0.174343255E-11 0.488441622E-11 0.123976792E-10 0.284919883E-10 0.592237856E-10 0.111165174E-09 0.188009511E-09 0.285655277E-09 0.388385074E-09 0.470144979E-09 0.503351916E-09 0.472537731E-09 0.384626303E-09 0.267485284E-09 0.155914837E-09 0.742951950E-10 0.280217256E-10 0.802577796E-11 0.165568991E-11 0.229831372E-12 0.195713739E-13 0.884752542E-15 0.155396003E-16 0.170610309E-22
0.108165049E-14 0.278972385E-13 0.383241263E-12 0.321800919E-11 0.181102737E-10 0.731198505E-10 0.223353711E-09 0.538334433E-09 0.105822062E-08 0.174083559E-08 0.244480103E-08 0.297625924E-08 0.317767457E-08 0.300203773E-08 0.252646704E-08 0.190373495E-08 0.128927946E-08 0.786973764E-09 0.433845931E-09 0.216318963E-09 0.976424219E-10 0.399191583E-10 0.147833325E-10 0.495805437E-11 0.150507406E-11 0.438810501E-12 0.122603533E-12 0.327475473E-13 0.833960095E-14 0.201896571E-14 0.463155445E-15 0.100320279E-15 0.204360049E-16 0.389792361E-17 0.692717648E-18 0.114063941E-18 0.172928392E-19 0.239645452E-20 0.301038611E-21 0.339454831E-22 0.470263533E-23 0.830577990E-21 0.370222080E-18 0.918720522E-16 0.148495108E-13 0.157467648E-11 0.110596143E-09 0.500604402E-08 0.134463349E-06 0.184019981E-06 0.868958150E-08 0.235018588E-09 0.406840317E-11 0.471148219E-13 0.368780490E-15 0.192881996E-17 0.660552631E-20 0.130756377E-22 0.477303643E-23 0.434593475E-22 0.356495104E-21 0.265111689E-20 0.180250394E-19 0.112867101E-18 0.655050893E-18 0.354359211E-17 0.179574922E-16 0.856292804E-16 0.385761833E-15 0.164783081E-14 0.669625454E-14 0.259643720E-13 0.963246613E-13 0.342765530E-12 0.117260813E-11 0.386473492E-11 0.115558136E-10 0.313533505E-10 0.771798181E-10 0.172276235E-09 0.348358870E-09 0.637193409E-09 0.105212605E-08 0.156392532E-08 0.208510786E-08 0.248155763E-08 0.261985944E-08 0.243347142E-08 0.196744288E-08 0.136518974E-08 0.798165645E-09 0.383844789E-09 0.147168569E-09 0.432079789E-10 0.922376932E-11 0.133854071E-11 0.120430779E-12 0.581309225E-14 0.110131654E-15 0.124420404E-21
0.658642613E-14 0.158184474E-12 0.204582878E-11 0.163427379E-10 0.883894902E-10 0.346208950E-09 0.103463527E-08 0.245774134E-08 0.479191398E-08 0.786170595E-08 0.110634248E-07 0.135520413E-07 0.146122670E-07 0.139863623E-07 0.119601049E-07 0.918078502E-08 0.634858210E-08 0.396507627E-08 0.224083574E-08 0.114737209E-08 0.532695388E-09 0.224338242E-09 0.857023272E-10 0.296907776E-10 0.932250544E-11 0.280825211E-11 0.809896909E-12 0.223109034E-12 0.585596093E-13 0.146034833E-13 0.344941462E-14 0.769078493E-15 0.161238333E-15 0.316503423E-16 0.578910706E-17 0.981312381E-18 0.153207033E-18 0.218747041E-19 0.283283672E-20 0.329549433E-21 0.364785943E-22 0.138646881E-20 0.557562333E-18 0.131707575E-15 0.204690289E-13 0.211160581E-11 0.145435053E-09 0.649269793E-08 0.172769091E-06 0.235652323E-06 0.111784537E-07 0.305017789E-09 0.535203262E-11 0.632087969E-13 0.508824391E-15 0.276642842E-17 0.995661228E-20 0.258541652E-22 0.476626540E-22 0.421713428E-21 0.335462391E-20 0.242100789E-19 0.159838733E-18 0.972331888E-18 0.548414749E-17 0.288372565E-16 0.142057907E-15 0.658460120E-15 0.288294525E-14 0.119648418E-13 0.472187393E-13 0.177706198E-12 0.639440378E-12 0.220512497E-11 0.730357788E-11 0.232786204E-10 0.673981981E-10 0.177301146E-09 0.423742791E-09 0.919638310E-09 0.181082094E-08 0.323069060E-08 0.521260368E-08 0.758644614E-08 0.992571447E-08 0.116216068E-07 0.121051560E-07 0.111296421E-07 0.893991992E-08 0.618954310E-08 0.362866093E-08 0.175998993E-08 0.685185964E-09 0.205874526E-09 0.453791588E-10 0.686624715E-11 0.650730500E-12 0.334280401E-13 0.680782667E-15 0.788743018E-21
0.354128991E-13 0.794661537E-12 0.970653505E-11 0.739755132E-10 0.385415089E-09 0.146721491E-08 0.429543867E-08 0.100650235E-07 0.194729282E-07 0.318654436E-07 0.449287434E-07 0.553587967E-07 0.602514945E-07 0.583954929E-07 0.507045357E-07 0.396201756E-07 0.279521366E-07 0.178472970E-07 0.103302744E-07 0.542645484E-08 0.258865107E-08 0.112178133E-08 0.441571696E-09 0.157834523E-09 0.511959121E-10 0.159131788E-10 0.473071669E-11 0.134217474E-11 0.362543925E-12 0.929868704E-13 0.225787830E-13 0.517316987E-14 0.111424400E-14 0.224680042E-15 0.422156291E-16 0.735190436E-17 0.117953701E-17 0.173133077E-18 0.230613657E-19 0.276111737E-20 0.298144867E-21 0.226880556E-20 0.825933431E-18 0.186066589E-15 0.278781735E-13 0.280197913E-11 0.189365690E-09 0.833809022E-08 0.219712376E-06 0.298702957E-06 0.142445638E-07 0.392272492E-09 0.697616444E-11 0.839646549E-13 0.694037462E-15 0.391300849E-17 0.147776931E-19 0.767345639E-22 0.410861756E-21 0.353293081E-20 0.273187900E-19 0.191773075E-18 0.123215077E-17 0.729705815E-17 0.400774036E-16 0.205235726E-15 0.984624767E-15 0.444411591E-14 0.189423418E-13 0.765036702E-13 0.293663477E-12 0.107429777E-11 0.375472396E-11 0.125654209E-10 0.403454006E-10 0.124512803E-09 0.349489909E-09 0.892427077E-09 0.207302953E-08 0.437885239E-08 0.840425329E-08 0.146384158E-07 0.230989254E-07 0.329428502E-07 0.423270272E-07 0.487887881E-07 0.501675963E-07 0.456764511E-07 0.364625876E-07 0.251907526E-07 0.148058010E-07 0.723868432E-08 0.285872681E-08 0.877753148E-09 0.199373990E-09 0.313754786E-10 0.312313998E-11 0.170199832E-12 0.371354660E-14 0.439763060E-20