<?xml version="1.0"?>
<VTKFile type="StructuredGrid">
<StructuredGrid WholeExtent="     0   100     0   100     0     0">
<Piece Extent="     0   100     0   100     0     0">
<Points>
<DataArray type="Float32" NumberOfComponents="3"/>
0.000000000E+00 0.000000000E+00 0.000000000E+00 0.199999996E-01 0.000000000E+00 0.000000000E+00 0.399999991E-01 0.000000000E+00 0.000000000E+00 0.599999987E-01 0.000000000E+00 0.000000000E+00 0.799999982E-01 0.000000000E+00 0.000000000E+00 0.100000001E+00 0.000000000E+00 0.000000000E+00 0.119999997E+00 0.000000000E+00 0.000000000E+00 0.140000001E+00 0.000000000E+00 0.000000000E+00 0.159999996E+00 0.000000000E+00 0.000000000E+00 0.180000007E+00 0.000000000E+00 0.000000000E+00 0.200000003E+00 0.000000000E+00 0.000000000E+00 0.219999999E+00 0.000000000E+00 0.000000000E+00 0.239999995E+00 0.000000000E+00 0.000000000E+00 0.259999990E+00 0.000000000E+00 0.000000000E+00 0.280000001E+00 0.000000000E+00 0.000000000E+00 0.300000012E+00 0.000000000E+00 0.000000000E+00 0.319999993E+00 0.000000000E+00 0.000000000E+00 0.340000004E+00 0.000000000E+00 0.000000000E+00 0.360000014E+00 0.000000000E+00 0.000000000E+00 0.379999995E+00 0.000000000E+00 0.000000000E+00 0.400000006E+00 0.000000000E+00 0.000000000E+00 0.419999987E+00 0.000000000E+00 0.000000000E+00 0.439999998E+00 0.000000000E+00 0.000000000E+00 0.460000008E+00 0.000000000E+00 0.000000000E+00 0.479999989E+00 0.000000000E+00 0.000000000E+00 0.500000000E+00 0.000000000E+00 0.000000000E+00 0.519999981E+00 0.000000000E+00 0.000000000E+00 0.540000021E+00 0.000000000E+00 0.000000000E+00 0.560000002E+00 0.000000000E+00 0.000000000E+00 0.579999983E+00 0.000000000E+00 0.000000000E+00 0.600000024E+00 0.000000000E+00 0.000000000E+00 0.620000005E+00 0.000000000E+00 0.000000000E+00 0.639999986E+00 0.000000000E+00 0.000000000E+00 0.660000026E+00 0.000000000E+00 0.000000000E+00 0.680000007E+00 0.000000000E+00 0.000000000E+00 0.699999988E+00 0.000000000E+00 0.000000000E+00 0.720000029E+00 0.000000000E+00 0.000000000E+00 0.740000010E+00 0.000000000E+00 0.000000000E+00 0.759999990E+00 0.000000000E+00 0.000000000E+00 0.779999971E+00 0.000000000E+00 0.000000000E+00 0.800000012E+00 0.000000000E+00 0.000000000E+00 0.819999993E+00 0.000000000E+00 0.000000000E+00 0.839999974E+00 0.000000000E+00 0.000000000E+00 0.860000014E+00 0.000000000E+00 0.000000000E+00 0.879999995E+00 0.000000000E+00 0.000000000E+00 0.899999976E+00 0.000000000E+00 0.000000000E+00 0.920000017E+00 0.000000000E+00 0.000000000E+00 0.939999998E+00 0.000000000E+00 0.000000000E+00 0.959999979E+00 0.000000000E+00 0.000000000E+00 0.980000019E+00 0.000000000E+00 0.000000000E+00 0.100000000E+01 0.000000000E+00 0.000000000E+00 0.101999998E+01 0.000000000E+00 0.000000000E+00 0.103999996E+01 0.000000000E+00 0.000000000E+00 0.105999994E+01 0.000000000E+00 0.000000000E+00 0.108000004E+01 0.000000000E+00 0.000000000E+00 0.110000002E+01 0.000000000E+00 0.000000000E+00 0.112000000E+01 0.000000000E+00 0.000000000E+00 0.113999999E+01 0.000000000E+00 0.000000000E+00 0.115999997E+01 0.000000000E+00 0.000000000E+00 0.117999995E+01 0.000000000E+00 0.000000000E+00 0.120000005E+01 0.000000000E+00 0.000000000E+00 0.122000003E+01 0.000000000E+00 0.000000000E+00 0.124000001E+01 0.000000000E+00 0.000000000E+00 0.125999999E+01 0.000000000E+00 0.000000000E+00 0.127999997E+01 0.000000000E+00 0.000000000E+00 0.129999995E+01 0.000000000E+00 0.000000000E+00 0.132000005E+01 0.000000000E+00 0.000000000E+00 0.134000003E+01 0.000000000E+00 0.000000000E+00 0.136000001E+01 0.000000000E+00 0.000000000E+00 0.138000000E+01 0.000000000E+00 0.000000000E+00 0.139999998E+01 0.000000000E+00 0.000000000E+00 0.141999996E+01 0.000000000E+00 0.000000000E+00 0.144000006E+01 0.000000000E+00 0.000000000E+00 0.146000004E+01 0.000000000E+00 0.000000000E+00 0.148000002E+01 0.000000000E+00 0.000000000E+00 0.150000000E+01 0.000000000E+00 0.000000000E+00 0.151999998E+01 0.000000000E+00 0.000000000E+00 0.153999996E+01 0.000000000E+00 0.000000000E+00 0.155999994E+01 0.000000000E+00 0.000000000E+00 0.158000004E+01 0.000000000E+00 0.000000000E+00 0.160000002E+01 0.000000000E+00 0.000000000E+00 0.162000000E+01 0.000000000E+00 0.000000000E+00 0.163999999E+01 0.000000000E+00 0.000000000E+00 0.165999997E+01 0.000000000E+00 0.000000000E+00 0.167999995E+01 0.000000000E+00 0.000000000E+00 0.170000005E+01 0.000000000E+00 0.000000000E+00 0.172000003E+01 0.000000000E+00 0.000000000E+00 0.174000001E+01 0.000000000E+00 0.000000000E+00 0.175999999E+01 0.000000000E+00 0.000000000E+00 0.177999997E+01 0.000000000E+00 0.000000000E+00 0.179999995E+01 0.000000000E+00 0.000000000E+00 0.182000005E+01 0.000000000E+00 0.000000000E+00 0.184000003E+01 0.000000000E+00 0.000000000E+00 0.186000001E+01 0.000000000E+00 0.000000000E+00 0.188000000E+01 0.000000000E+00 0.000000000E+00 0.189999998E+01 0.000000000E+00 0.000000000E+00 0.191999996E+01 0.000000000E+00 0.000000000E+00 0.194000006E+01 0.000000000E+00 0.000000000E+00 0.196000004E+01 0.000000000E+00 0.000000000E+00 0.198000002E+01 0.000000000E+00 0.000000000E+00 0.200000000E+01 0.000000000E+00 0.000000000E+00
0.000000000E+00 0.999999978E-02 0.000000000E+00 0.199999996E-01 0.999999978E-02 0.000000000E+00 0.399999991E-01 0.999999978E-02 0.000000000E+00 0.599999987E-01 0.999999978E-02 0.000000000E+00 0.799999982E-01 0.999999978E-02 0.000000000E+00 0.100000001E+00 0.999999978E-02 0.000000000E+00 0.119999997E+00 0.999999978E-02 0.000000000E+00 0.140000001E+00 0.999999978E-02 0.000000000E+00 0.159999996E+00 0.999999978E-02 0.000000000E+00 0.180000007E+00 0.999999978E-02 0.000000000E+00 0.200000003E+00 0.999999978E-02 0.000000000E+00 0.219999999E+00 0.999999978E-02 0.000000000E+00 0.239999995E+00 0.999999978E-02 0.000000000E+00 0.259999990E+00 0.999999978E-02 0.000000000E+00 0.280000001E+00 0.999999978E-02 0.000000000E+00 0.300000012E+00 0.999999978E-02 0.000000000E+00 0.319999993E+00 0.999999978E-02 0.000000000E+00 0.340000004E+00 0.999999978E-02 0.000000000E+00 0.360000014E+00 0.999999978E-02 0.000000000E+00 0.379999995E+00 0.999999978E-02 0.000000000E+00 0.400000006E+00 0.999999978E-02 0.000000000E+00 0.419999987E+00 0.999999978E-02 0.000000000E+00 0.439999998E+00 0.999999978E-02 0.000000000E+00 0.460000008E+00 0.999999978E-02 0.000000000E+00 0.479999989E+00 0.999999978E-02 0.000000000E+00 0.500000000E+00 0.999999978E-02 0.000000000E+00 0.519999981E+00 0.999999978E-02 0.000000000E+00 0.540000021E+00 0.999999978E-02 0.000000000E+00 0.560000002E+00 0.999999978E-02 0.000000000E+00 0.579999983E+00 0.999999978E-02 0.000000000E+00 0.600000024E+00 0.999999978E-02 0.000000000E+00 0.620000005E+00 0.999999978E-02 0.000000000E+00 0.639999986E+00 0.999999978E-02 0.000000000E+00 0.660000026E+00 0.999999978E-02 0.000000000E+00 0.680000007E+00 0.999999978E-02 0.000000000E+00 0.699999988E+00 0.999999978E-02 0.000000000E+00 0.720000029E+00 0.999999978E-02 0.000000000E+00 0.740000010E+00 0.999999978E-02 0.000000000E+00 0.759999990E+00 0.999999978E-02 0.000000000E+00 0.779999971E+00 0.999999978E-02 0.000000000E+00 0.800000012E+00 0.999999978E-02 0.000000000E+00 0.819999993E+00 0.999999978E-02 0.000000000E+00 0.839999974E+00 0.999999978E-02 0.000000000E+00 0.860000014E+00 0.999999978E-02 0.000000000E+00 0.879999995E+00 0.999999978E-02 0.000000000E+00 0.899999976E+00 0.999999978E-02 0.000000000E+00 0.920000017E+00 0.999999978E-02 0.000000000E+00 0.939999998E+00 0.999999978E-02 0.000000000E+00 0.959999979E+00 0.999999978E-02 0.000000000E+00 0.980000019E+00 0.999999978E-02 0.000000000E+00 0.100000000E+01 0.999999978E-02 0.000000000E+00 0.101999998E+01 0.999999978E-02 0.000000000E+00 0.103999996E+01 0.999999978E-02 0.000000000E+00 0.105999994E+01 0.999999978E-02 0.000000000E+00 0.108000004E+01 0.999999978E-02 0.000000000E+00 0.110000002E+01 0.999999978E-02 0.000000000E+00 0.112000000E+01 0.999999978E-02 0.000000000E+00 0.113999999E+01 0.999999978E-02 0.000000000E+00 0.115999997E+01 0.999999978E-02 0.000000000E+00 0.117999995E+01 0.999999978E-02 0.000000000E+00 0.120000005E+01 0.999999978E-02 0.000000000E+00 0.122000003E+01 0.999999978E-02 0.000000000E+00 0.124000001E+01 0.999999978E-02 0.000000000E+00 0.125999999E+01 0.999999978E-02 0.000000000E+00 0.127999997E+01 0.999999978E-02 0.000000000E+00 0.129999995E+01 0.999999978E-02 0.000000000E+00 0.132000005E+01 0.999999978E-02 0.000000000E+00 0.134000003E+01 0.999999978E-02 0.000000000E+00 0.136000001E+01 0.999999978E-02 0.000000000E+00 0.138000000E+01 0.999999978E-02 0.000000000E+00 0.139999998E+01 0.999999978E-02 0.000000000E+00 0.141999996E+01 0.999999978E-02 0.000000000E+00 0.144000006E+01 0.999999978E-02 0.000000000E+00 0.146000004E+01 0.999999978E-02 0.000000000E+00 0.148000002E+01 0.999999978E-02 0.000000000E+00 0.150000000E+01 0.999999978E-02 0.000000000E+00 0.151999998E+01 0.999999978E-02 0.000000000E+00 0.153999996E+01 0.999999978E-02 0.000000000E+00 0.155999994E+01 0.999999978E-02 0.000000000E+00 0.158000004E+01 0.999999978E-02 0.000000000E+00 0.160000002E+01 0.999999978E-02 0.000000000E+00 0.162000000E+01 0.999999978E-02 0.000000000E+00 0.163999999E+01 0.999999978E-02 0.000000000E+00 0.165999997E+01 0.999999978E-02 0.000000000E+00 0.167999995E+01 0.999999978E-02 0.000000000E+00 0.170000005E+01 0.999999978E-02 0.000000000E+00 0.172000003E+01 0.999999978E-02 0.000000000E+00 0.174000001E+01 0.999999978E-02 0.000000000E+00 0.175999999E+01 0.999999978E-02 0.000000000E+00 0.177999997E+01 0.999999978E-02 0.000000000E+00 0.179999995E+01 0.999999978E-02 0.000000000E+00 0.182000005E+01 0.999999978E-02 0.000000000E+00 0.184000003E+01 0.999999978E-02 0.000000000E+00 0.186000001E+01 0.999999978E-02 0.000000000E+00 0.188000000E+01 0.999999978E-02 0.000000000E+00 0.189999998E+01 0.999999978E-02 0.000000000E+00 0.191999996E+01 0.999999978E-02 0.000000000E+00 0.194000006E+01 0.999999978E-02 0.000000000E+00 0.196000004E+01 0.999999978E-02 0.000000000E+00 0.198000002E+01 0.999999978E-02 0.000000000E+00 0.200000000E+01 0.999999978E-02 0.000000000E+00
[...]
<CellData Scalars="Temperature, U, V">
<DataArray type="Float32" Name="Temp, K"/>
0.891105505E-11 0.576857485E-10 0.228489894E-09 0.655216492E-09 0.148694157E-08 0.282211809E-08 0.464400252E-08 0.679002365E-08 0.897282693E-08 0.108479776E-07 0.121041293E-07 0.125437660E-07 0.121281198E-07 0.109748255E-07 0.931423028E-08 0.742305506E-08 0.555843016E-08 0.391076549E-08 0.258415489E-08 0.160236546E-08 0.931294986E-09 0.506603870E-09 0.257495247E-09 0.122054977E-09 0.538397590E-10 0.231851153E-10 0.972345642E-11 0.396098909E-11 0.156290172E-11 0.595485033E-12 0.218355309E-12 0.767732977E-13 0.257776995E-13 0.822822289E-14 0.248432244E-14 0.705491465E-15 0.187229420E-15 0.460972701E-16 0.104405728E-16 0.215391938E-17 0.400030851E-18 0.659392066E-19 0.947801721E-20 0.116152082E-20 0.420844939E-19 0.345132342E-16 0.128389265E-13 0.256302575E-11 0.267317335E-09 0.378932968E-09 0.490115067E-11 0.324734068E-13 0.121831277E-15 0.253592534E-18 0.460932108E-21 0.187880505E-20 0.134102529E-19 0.834667890E-19 0.461084019E-18 0.229305364E-17 0.103876936E-16 0.432904841E-16 0.167382816E-15 0.604867128E-15 0.205603166E-14 0.661127172E-14 0.202125490E-13 0.590208221E-13 0.165277026E-12 0.445504392E-12 0.115982235E-11 0.292533619E-11 0.716875474E-11 0.171136473E-10 0.398970058E-10 0.910410289E-10 0.193730199E-09 0.385137561E-09 0.716468274E-09 0.124895017E-08 0.204245865E-08 0.313607340E-08 0.452333548E-08 0.612925533E-08 0.779927145E-08 0.931011890E-08 0.104072830E-07 0.108645022E-07 0.105497024E-07 0.947505185E-08 0.780930609E-08 0.584186965E-08 0.390522992E-08 0.228116481E-08 0.112616216E-08 0.446187004E-09 0.130303185E-09 0.240668804E-10 0.200068564E-11 0.764343589E-17
0.105235889E-09 0.651945664E-09 0.249999421E-08 0.700843383E-08 0.156671227E-07 0.294670066E-07 0.482894009E-07 0.706052461E-07 0.936441609E-07 0.113998723E-06 0.128461949E-06 0.134819061E-06 0.132346528E-06 0.121887211E-06 0.105519987E-06 0.859664340E-07 0.659381385E-07 0.476119695E-07 0.323465379E-07 0.206569784E-07 0.123847501E-07 0.696021063E-08 0.366015285E-08 0.179742010E-08 0.822466650E-09 0.366791875E-09 0.159062472E-09 0.669104216E-10 0.272291495E-10 0.106884874E-10 0.403407125E-11 0.145873309E-11 0.503391762E-12 0.165056906E-12 0.511717201E-13 0.149174903E-13 0.406355628E-14 0.102692919E-14 0.238773479E-15 0.505835205E-16 0.965092631E-17 0.163511863E-17 0.241736244E-18 0.305101595E-19 0.101307227E-18 0.752724762E-16 0.273924238E-13 0.541832941E-11 0.563333380E-09 0.797605315E-09 0.103082386E-10 0.685449012E-13 0.259604375E-15 0.553343867E-18 0.661348227E-20 0.492664992E-19 0.341896676E-18 0.207059975E-17 0.111370266E-16 0.539556943E-16 0.238202579E-15 0.967691520E-15 0.364776687E-14 0.128512178E-13 0.425813763E-13 0.133431772E-12 0.397373730E-12 0.112965952E-11 0.307765619E-11 0.806428795E-11 0.203888365E-10 0.498864491E-10 0.118443783E-09 0.273567030E-09 0.616080964E-09 0.135570155E-08 0.278535306E-08 0.535314593E-08 0.964019087E-08 0.162910307E-07 0.258659458E-07 0.386216001E-07 0.542641097E-07 0.717561122E-07 0.892770444E-07 0.104415960E-06 0.114610678E-06 0.117757750E-06 0.112824594E-06 0.100256358E-06 0.819984720E-07 0.610734787E-07 0.408038403E-07 0.239274645E-07 0.119227579E-07 0.480063056E-08 0.143747614E-08 0.275344303E-09 0.240560401E-10 0.924925965E-16
0.847774295E-09 0.504655295E-08 0.187944149E-07 0.516194945E-07 0.113817521E-06 0.212272965E-06 0.346457711E-06 0.506405911E-06 0.673654654E-06 0.824984056E-06 0.937780385E-06 0.995340088E-06 0.990544208E-06 0.926941937E-06 0.817154159E-06 0.679310745E-06 0.532718218E-06 0.394009078E-06 0.274671294E-06 0.180290527E-06 0.111275639E-06 0.644748326E-07 0.350053675E-07 0.177718302E-07 0.841776604E-08 0.387931554E-08 0.173575598E-08 0.752304830E-09 0.315042881E-09 0.127117483E-09 0.492678606E-10 0.182794769E-10 0.646781196E-11 0.217321191E-11 0.690124282E-12 0.206011762E-12 0.574552206E-13 0.148654079E-13 0.353899175E-14 0.767822979E-15 0.150085424E-15 0.260646067E-16 0.395226607E-17 0.511748159E-18 0.225250018E-18 0.123102872E-15 0.438738909E-13 0.859881784E-11 0.890852059E-09 0.125981270E-08 0.162773631E-10 0.108663099E-12 0.415463573E-15 0.914674504E-18 0.105250306E-18 0.826241090E-18 0.559062549E-17 0.330360915E-16 0.173480858E-15 0.820949150E-15 0.354137826E-14 0.140605563E-13 0.518045351E-13 0.178376357E-12 0.577543222E-12 0.176789735E-11 0.514083004E-11 0.142614288E-10 0.378881371E-10 0.967262381E-10 0.238030901E-09 0.566229452E-09 0.130537348E-08 0.292332936E-08 0.637315489E-08 0.135526355E-07 0.269402296E-07 0.501575954E-07 0.876184245E-07 0.143830007E-06 0.222159386E-06 0.323209889E-06 0.443208592E-06 0.573008549E-06 0.698327369E-06 0.801605552E-06 0.865369941E-06 0.876421836E-06 0.829663236E-06 0.730275588E-06 0.593271750E-06 0.440242957E-06 0.294048988E-06 0.173070305E-06 0.869752625E-07 0.355333896E-07 0.108813669E-07 0.215360996E-08 0.196833286E-09 0.758916322E-15
0.505811393E-08 0.289965296E-07 0.105062085E-06 0.283020682E-06 0.615877127E-06 0.113918350E-05 0.185152362E-05 0.270445253E-05 0.360640297E-05 0.443992030E-05 0.508712537E-05 0.545589319E-05 0.549941979E-05 0.522421715E-05 0.468523012E-05 0.397048643E-05 0.318031039E-05 0.240703343E-05 0.172012199E-05 0.115934961E-05 0.735906553E-06 0.439178166E-06 0.245936519E-06 0.128953644E-06 0.631618136E-07 0.300492751E-07 0.138585206E-07 0.618244744E-08 0.266147948E-08 0.110268583E-08 0.438395875E-09 0.166702485E-09 0.604068739E-10 0.207736380E-10 0.674847634E-11 0.206006197E-11 0.587388645E-12 0.155358284E-12 0.378101549E-13 0.838740325E-14 0.167673369E-14 0.297929360E-15 0.462462784E-16 0.613338129E-17 0.935446974E-18 0.179013333E-15 0.625274707E-13 0.121413851E-10 0.125295585E-08 0.176972514E-08 0.228712188E-10 0.153337656E-12 0.591900006E-15 0.145146178E-17 0.128174014E-17 0.990229657E-17 0.654575349E-16 0.378126201E-15 0.194210573E-14 0.899249818E-14 0.379658429E-13 0.147549480E-12 0.532131630E-12 0.179329121E-11 0.568133171E-11 0.170101936E-10 0.483560414E-10 0.131059594E-09 0.339910461E-09 0.846392512E-09 0.202946060E-08 0.469845451E-08 0.105280664E-07 0.228832242E-07 0.483426277E-07 0.994442786E-07 0.191447157E-06 0.345633737E-06 0.586244312E-06 0.935712819E-06 0.140737882E-05 0.199694546E-05 0.267514679E-05 0.338472228E-05 0.404437469E-05 0.456074667E-05 0.484684733E-05 0.484286784E-05 0.453344637E-05 0.395568031E-05 0.319409014E-05 0.236266214E-05 0.157814441E-05 0.932352805E-06 0.472403087E-06 0.195671191E-06 0.611923880E-07 0.124870327E-07 0.119069299E-08 0.458859982E-14
0.239258000E-07 0.132376030E-06 0.467406579E-06 0.123622976E-05 0.265628250E-05 0.487341140E-05 0.788610942E-05 0.115061412E-04 0.153716719E-04 0.190107330E-04 0.219371668E-04 0.237525110E-04 0.242270671E-04 0.233404280E-04 0.212738760E-04 0.183600350E-04 0.150058577E-04 0.116102829E-04 0.849682783E-05 0.587456771E-05 0.383119550E-05 0.235260654E-05 0.135749053E-05 0.734386163E-06 0.371587191E-06 0.182317649E-06 0.865828582E-07 0.397177295E-07 0.175590174E-07 0.746243689E-08 0.304018211E-08 0.118354571E-08 0.438730385E-09 0.154242341E-09 0.511965470E-10 0.159615949E-10 0.464678990E-11 0.125463528E-11 0.311691618E-12 0.705845294E-13 0.144078000E-13 0.261479939E-14 0.414750503E-15 0.562386467E-16 0.670029945E-17 0.244536268E-15 0.836328687E-13 0.160874855E-10 0.165304248E-08 0.233193576E-08 0.301600307E-10 0.203148642E-12 0.791872838E-15 0.311019393E-17 0.120084887E-16 0.908320082E-16 0.587680776E-15 0.332458420E-14 0.167293344E-13 0.759143521E-13 0.314161322E-12 0.119684557E-11 0.423088474E-11 0.139730597E-10 0.433693879E-10 0.127158548E-09 0.353791718E-09 0.937844691E-09 0.237707676E-08 0.577916071E-08 0.135154830E-07 0.304826315E-07 0.664545112E-07 0.140328439E-06 0.287557981E-06 0.572787201E-06 0.106902098E-05 0.187332580E-05 0.308819608E-05 0.479736900E-05 0.703313663E-05 0.974237537E-05 0.127623553E-04 0.158181629E-04 0.185498866E-04 0.205698907E-04 0.215403888E-04 0.212535506E-04 0.196914134E-04 0.170462681E-04 0.136906092E-04 0.101004616E-04 0.674947887E-05 0.400302361E-05 0.204447110E-05 0.857949999E-06 0.273638506E-06 0.574537822E-07 0.570021719E-08 0.218840228E-13
0.937918330E-07 0.501872933E-06 0.172957812E-05 0.449552817E-05 0.954197822E-05 0.173648950E-04 0.279695178E-04 0.407438019E-04 0.544966642E-04 0.676535346E-04 0.785565280E-04 0.857914201E-04 0.884611436E-04 0.863433233E-04 0.799010159E-04 0.701533208E-04 0.584456648E-04 0.461807394E-04 0.345757726E-04 0.244972762E-04 0.163980221E-04 0.103506864E-04 0.614790406E-05 0.342811018E-05 0.179004940E-05 0.904888509E-06 0.442080534E-06 0.208329226E-06 0.944945668E-07 0.411550722E-07 0.171642061E-07 0.683417412E-08 0.258893174E-08 0.929486876E-09 0.314877624E-09 0.100146093E-09 0.297312244E-10 0.818419117E-11 0.207266734E-11 0.478475170E-12 0.995736086E-13 0.184282826E-13 0.298187107E-14 0.412665082E-15 0.479245418E-16 0.323804311E-15 0.107510910E-12 0.204837380E-10 0.209486029E-08 0.295150793E-08 0.382225501E-10 0.258757181E-12 0.101930823E-14 0.124330689E-16 0.899867951E-16 0.667074233E-15 0.423165633E-14 0.234822758E-13 0.115948212E-12 0.516402405E-12 0.209768726E-11 0.784409343E-11 0.272140921E-10 0.881866594E-10 0.268462225E-09 0.771655406E-09 0.210350160E-08 0.545924506E-08 0.135359928E-07 0.321621663E-07 0.734315790E-07 0.161495365E-06 0.342863302E-06 0.704060426E-06 0.140081397E-05 0.270461146E-05 0.489840704E-05 0.834010734E-05 0.133758276E-04 0.202433221E-04 0.289557938E-04 0.391962567E-04 0.502609219E-04 0.610862335E-04 0.703759506E-04 0.768171303E-04 0.793430663E-04 0.773822321E-04 0.710242530E-04 0.610506540E-04 0.488068981E-04 0.359364676E-04 0.240347908E-04 0.143128473E-04 0.736740685E-05 0.313037913E-05 0.101700448E-05 0.219272366E-06 0.225747225E-07 0.860593267E-13
0.314482264E-06 0.163065386E-05 0.549283641E-05 0.140422071E-04 0.294526599E-04 0.531642909E-04 0.852080848E-04 0.123862381E-03 0.165755177E-03 0.206385943E-03 0.240931098E-03 0.265136856E-03 0.276096398E-03 0.272745761E-03 0.255984924E-03 0.228415243E-03 0.193772852E-03 0.156199152E-03 0.119520235E-03 0.866907649E-04 0.595009478E-04 0.385681196E-04 0.235570751E-04 0.135254559E-04 0.728107716E-05 0.378850632E-05 0.190227126E-05 0.920072182E-06 0.427787626E-06 0.190761156E-06 0.813724625E-07 0.331066445E-07 0.128044197E-07 0.469001371E-08 0.161991542E-08 0.525024579E-09 0.158772939E-09 0.445070335E-10 0.114760172E-10 0.269710794E-11 0.571450222E-12 0.107691688E-12 0.177487165E-13 0.250278733E-14 0.293839250E-15 0.434345366E-15 0.134530760E-12 0.253826734E-10 0.258255217E-08 0.363403219E-08 0.471472895E-10 0.320918232E-12 0.128150389E-14 0.665903819E-16 0.556729292E-15 0.405108288E-14 0.252370926E-13 0.137582301E-12 0.667561872E-12 0.292201614E-11 0.116657942E-10 0.428705231E-10 0.146139240E-09 0.465156580E-09 0.139034084E-08 0.392169897E-08 0.104840794E-07 0.266644804E-07 0.647341096E-07 0.150457225E-06 0.335667892E-06 0.720497042E-06 0.149099424E-05 0.298013128E-05 0.576253797E-05 0.107952374E-04 0.189920684E-04 0.314491881E-04 0.491186329E-04 0.724939819E-04 0.101274025E-03 0.134103175E-03 0.168495375E-03 0.201018309E-03 0.227751749E-03 0.244955940E-03 0.249811885E-03 0.241065238E-03 0.219400230E-03 0.187431040E-03 0.149272309E-03 0.109764689E-03 0.735123031E-04 0.439668511E-04 0.228075805E-04 0.980703862E-05 0.324181337E-05 0.716398006E-06 0.763334711E-07 0.288035221E-12
0.923699588E-06 0.464973573E-05 0.153295277E-04 0.385731655E-04 0.799688059E-04 0.143165278E-03 0.228238481E-03 0.330889714E-03 0.442707329E-03 0.552405312E-03 0.647723791E-03 0.717553718E-03 0.753842760E-03 0.752909225E-03 0.715929724E-03 0.648535904E-03 0.559637265E-03 0.459742791E-03 0.359153724E-03 0.266411866E-03 0.187302125E-03 0.124548387E-03 0.781503259E-04 0.461560412E-04 0.255897994E-04 0.136920798E-04 0.705958792E-05 0.350146820E-05 0.166738289E-05 0.760633100E-06 0.331575507E-06 0.137728634E-06 0.543375869E-07 0.202869330E-07 0.713757631E-08 0.235511677E-08 0.724747595E-09 0.206663839E-09 0.541933859E-10 0.129512833E-10 0.279022356E-11 0.534715338E-12 0.896331552E-13 0.128592629E-13 0.153397804E-14 0.654002556E-15 0.165120874E-12 0.308435257E-10 0.312070059E-08 0.438568915E-08 0.570337562E-10 0.390495877E-12 0.159958869E-14 0.342569082E-15 0.291466959E-14 0.208507172E-13 0.127750620E-12 0.685147089E-12 0.327104381E-11 0.140889956E-10 0.553472962E-10 0.200106556E-09 0.670934031E-09 0.209974793E-08 0.616799412E-08 0.170886114E-07 0.448418334E-07 0.111859705E-06 0.266123976E-06 0.605553907E-06 0.132121409E-05 0.277019103E-05 0.559259615E-05 0.108901577E-04 0.204847311E-04 0.372715876E-04 0.637587509E-04 0.102784492E-03 0.156488706E-03 0.225458556E-03 0.307923503E-03 0.399262877E-03 0.492062070E-03 0.576841878E-03 0.643408508E-03 0.682598504E-03 0.688052271E-03 0.657627417E-03 0.594088284E-03 0.504872005E-03 0.400896941E-03 0.294617319E-03 0.197691072E-03 0.118787480E-03 0.621000072E-04 0.270110904E-04 0.907566846E-05 0.205204969E-05 0.225715979E-06 0.840447232E-12
0.242184638E-05 0.118552434E-04 0.383002989E-04 0.949191890E-04 0.194543871E-03 0.345374690E-03 0.547462900E-03 0.791084080E-03 0.105738908E-02 0.132107793E-02 0.155441894E-02 0.173174043E-02 0.183354225E-02 0.184949720E-02 0.177985779E-02 0.163506437E-02 0.143366877E-02 0.119900808E-02 0.955298718E-03 0.723951729E-03 0.520832371E-03 0.354935182E-03 0.228564415E-03 0.138720381E-03 0.791293642E-04 0.434977119E-04 0.230091937E-04 0.116931269E-04 0.569827307E-05 0.265715403E-05 0.118277387E-05 0.501192005E-06 0.201540843E-06 0.766344854E-07 0.274414127E-07 0.921000431E-08 0.288144997E-08 0.835013059E-09 0.222458982E-09 0.540013971E-10 0.118161834E-10 0.229990050E-11 0.391606859E-12 0.570801273E-13 0.691728736E-14 0.129365277E-14 0.199790583E-12 0.369332100E-10 0.371438058E-08 0.521331778E-08 0.679940548E-10 0.468482729E-12 0.204763502E-14 0.156018969E-14 0.131692414E-13 0.927514223E-13 0.559658494E-12 0.295659764E-11 0.139054731E-10 0.590022545E-10 0.228311758E-09 0.812918732E-09 0.268341194E-08 0.826459345E-08 0.238796733E-07 0.650373622E-07 0.167653127E-06 0.410519220E-06 0.957842531E-06 0.213545900E-05 0.456013504E-05 0.934712443E-05 0.184248165E-04 0.349835100E-04 0.640735379E-04 0.113341164E-03 0.188712380E-03 0.296460668E-03 0.440423930E-03 0.620034814E-03 0.828726799E-03 0.105329102E-02 0.127460249E-02 0.146981003E-02 0.161569985E-02 0.169261999E-02 0.168815663E-02 0.159980357E-02 0.143598299E-02 0.121513300E-02 0.962876133E-03 0.707730476E-03 0.476087764E-03 0.287509174E-03 0.151485976E-03 0.666299093E-04 0.227354649E-04 0.525109226E-05 0.594806693E-06 0.217904731E-11
0.575554623E-05 0.274402428E-04 0.869649011E-04 0.212387065E-03 0.430398592E-03 0.757548900E-03 0.119341968E-02 0.171774649E-02 0.229199021E-02 0.286467210E-02 0.337912119E-02 0.378203695E-02 0.403140811E-02 0.410253648E-02 0.399132166E-02 0.371434446E-02 0.330576720E-02 0.281158928E-02 0.228228304E-02 0.176519889E-02 0.129820709E-02 0.905771099E-03 0.598019513E-03 0.372607668E-03 0.218462577E-03 0.123264050E-03 0.668387947E-04 0.347751266E-04 0.173290882E-04 0.825389907E-05 0.374889373E-05 0.161937794E-05 0.663237870E-06 0.256654431E-06 0.934636191E-07 0.318815125E-07 0.101321875E-07 0.298131320E-08 0.806186895E-09 0.198587508E-09 0.440875669E-10 0.870587630E-11 0.150394801E-11 0.222435446E-12 0.273554694E-13 0.344351631E-14 0.239181803E-12 0.437273932E-10 0.436922276E-08 0.612449735E-08 0.801546537E-10 0.556029940E-12 0.287874481E-14 0.626076144E-14 0.521877429E-13 0.362349202E-12 0.215588311E-11 0.112316458E-10 0.520951893E-10 0.217977053E-09 0.831628544E-09 0.291873792E-08 0.949357570E-08 0.287982900E-07 0.819115797E-07 0.219473392E-06 0.556192106E-06 0.133781168E-05 0.306351922E-05 0.669672636E-05 0.140067377E-04 0.280887416E-04 0.541034133E-04 0.100251433E-03 0.178944319E-03 0.308046147E-03 0.499694259E-03 0.765728531E-03 0.111110334E-02 0.153000618E-02 0.200330163E-02 0.249833777E-02 0.297165546E-02 0.337441242E-02 0.365963113E-02 0.378992176E-02 0.374415354E-02 0.352183613E-02 0.314423558E-02 0.265192892E-02 0.209892308E-02 0.154422084E-02 0.104206498E-02 0.632739684E-03 0.336051802E-03 0.149431260E-03 0.517410190E-04 0.121890625E-04 0.141854309E-05 0.509890481E-11
0.125563420E-04 0.583859146E-04 0.181697993E-03 0.437486015E-03 0.876614416E-03 0.152934657E-02 0.239330111E-02 0.342906197E-02 0.456379494E-02 0.570122292E-02 0.673541101E-02 0.756568089E-02 0.811037701E-02 0.831764471E-02 0.817194302E-02 0.769549375E-02 0.694444636E-02 0.600020261E-02 0.495718187E-02 0.390905514E-02 0.293596298E-02 0.209517567E-02 0.141686969E-02 0.905413995E-03 0.545098330E-03 0.315412384E-03 0.175175082E-03 0.932374533E-04 0.474761910E-04 0.230815313E-04 0.106898060E-04 0.470394980E-05 0.196087535E-05 0.771697955E-06 0.285591312E-06 0.989386706E-07 0.319162403E-07 0.952775636E-08 0.261290456E-08 0.652548016E-09 0.146843857E-09 0.293884292E-10 0.514524274E-11 0.771278115E-12 0.961470554E-13 0.104765736E-13 0.284196657E-12 0.513118124E-10 0.509147746E-08 0.712763493E-08 0.936584144E-10 0.654496802E-12 0.487882253E-14 0.223391421E-13 0.183858815E-12 0.125997877E-11 0.740019764E-11 0.380597533E-10 0.174263826E-09 0.719699467E-09 0.270960432E-08 0.938155686E-08 0.300914422E-07 0.899717847E-07 0.252097351E-06 0.664980917E-06 0.165783752E-05 0.391969934E-05 0.881527194E-05 0.189067996E-04 0.387599357E-04 0.761005722E-04 0.143343772E-03 0.259420573E-03 0.451676344E-03 0.757418224E-03 0.119817385E-02 0.179272750E-02 0.254327315E-02 0.342889619E-02 0.440252805E-02 0.539287832E-02 0.631167507E-02 0.706517138E-02 0.756787695E-02 0.775600364E-02 0.759815844E-02 0.710159726E-02 0.631280709E-02 0.531221926E-02 0.420339033E-02 0.309800217E-02 0.209856755E-02 0.128180452E-02 0.686356274E-03 0.308496557E-03 0.108320673E-03 0.259926455E-04 0.310117844E-05 0.109091894E-10
0.254167935E-04 0.115411865E-03 0.352980074E-03 0.838214066E-03 0.166072452E-02 0.287094782E-02 0.446071709E-02 0.635772897E-02 0.843338203E-02 0.105204210E-01 0.124358227E-01 0.140047651E-01 0.150824375E-01 0.155713744E-01 0.154327182E-01 0.146903247E-01 0.134270666E-01 0.117734456E-01 0.988958962E-02 0.794312544E-02 0.608653342E-02 0.443826010E-02 0.307125831E-02 0.201093126E-02 0.124196266E-02 0.736342918E-03 0.418534386E-03 0.227723809E-03 0.118405515E-03 0.587190007E-04 0.277118743E-04 0.124145608E-04 0.526393387E-05 0.210546636E-05 0.791346451E-06 0.278240634E-06 0.910425015E-07 0.275536980E-07 0.765742758E-08 0.193727123E-08 0.441505776E-09 0.894705768E-10 0.158595220E-10 0.240696764E-11 0.303807110E-12 0.316851546E-13 0.336295472E-12 0.597836849E-10 0.588809490E-08 0.823206925E-08 0.108666978E-09 0.765544420E-12 0.102389690E-13 0.716265223E-13 0.582508596E-12 0.394435960E-11 0.228919331E-10 0.116338640E-09 0.526308663E-09 0.214723550E-08 0.798387401E-08 0.272904774E-07 0.863816894E-07 0.254746141E-06 0.703620515E-06 0.182835902E-05 0.448701076E-05 0.104346955E-04 0.230617497E-04 0.485614910E-04 0.976412994E-04 0.187822239E-03 0.346221263E-03 0.612464326E-03 0.104105426E-02 0.170218654E-02 0.262845051E-02 0.384354894E-02 0.533615286E-02 0.705077127E-02 0.888612028E-02 0.107025616E-01 0.123379314E-01 0.136289624E-01 0.144343991E-01 0.146558443E-01 0.142529784E-01 0.132512683E-01 0.117409546E-01 0.986736268E-02 0.781302340E-02 0.577338971E-02 0.392850768E-02 0.241497764E-02 0.130405510E-02 0.592408876E-03 0.210816521E-03 0.514663188E-04 0.628248335E-05 0.215779894E-10