<?xml version="1.0"?>
<VTKFile type="StructuredGrid">
<StructuredGrid WholeExtent="     0   100     0   100     0     0">
<Piece Extent="     0   100     0   100     0     0">
<Points>
<DataArray type="Float32" NumberOfComponents="3"/>
0.000000000E+00 0.000000000E+00 0.000000000E+00 0.199999996E-01 0.000000000E+00 0.000000000E+00 0.399999991E-01 0.000000000E+00 0.000000000E+00 0.599999987E-01 0.000000000E+00 0.000000000E+00 0.799999982E-01 0.000000000E+00 0.000000000E+00 0.100000001E+00 0.000000000E+00 0.000000000E+00 0.119999997E+00 0.000000000E+00 0.000000000E+00 0.140000001E+00 0.000000000E+00 0.000000000E+00 0.159999996E+00 0.000000000E+00 0.000000000E+00 0.180000007E+00 0.000000000E+00 0.000000000E+00 0.200000003E+00 0.000000000E+00 0.000000000E+00 0.219999999E+00 0.000000000E+00 0.000000000E+00 0.239999995E+00 0.000000000E+00 0.000000000E+00 0.259999990E+00 0.000000000E+00 0.000000000E+00 0.280000001E+00 0.000000000E+00 0.000000000E+00 0.300000012E+00 0.000000000E+00 0.000000000E+00 0.319999993E+00 0.000000000E+00 0.000000000E+00 0.340000004E+00 0.000000000E+00 0.000000000E+00 0.360000014E+00 0.000000000E+00 0.000000000E+00 0.379999995E+00 0.000000000E+00 0.000000000E+00 0.400000006E+00 0.000000000E+00 0.000000000E+00 0.419999987E+00 0.000000000E+00 0.000000000E+00 0.439999998E+00 0.000000000E+00 0.000000000E+00 0.460000008E+00 0.000000000E+00 0.000000000E+00 0.479999989E+00 0.000000000E+00 0.000000000E+00 0.500000000E+00 0.000000000E+00 0.000000000E+00 0.519999981E+00 0.000000000E+00 0.000000000E+00 0.540000021E+00 0.000000000E+00 0.000000000E+00 0.560000002E+00 0.000000000E+00 0.000000000E+00 0.579999983E+00 0.000000000E+00 0.000000000E+00 0.600000024E+00 0.000000000E+00 0.000000000E+00 0.620000005E+00 0.000000000E+00 0.000000000E+00 0.639999986E+00 0.000000000E+00 0.000000000E+00 0.660000026E+00 0.000000000E+00 0.000000000E+00 0.680000007E+00 0.000000000E+00 0.000000000E+00 0.699999988E+00 0.000000000E+00 0.000000000E+00 0.720000029E+00 0.000000000E+00 0.000000000E+00 0.740000010E+00 0.000000000E+00 0.000000000E+00 0.759999990E+00 0.000000000E+00 0.000000000E+00 0.779999971E+00 0.000000000E+00 0.000000000E+00 0.800000012E+00 0.000000000E+00 0.000000000E+00 0.819999993E+00 0.000000000E+00 0.000000000E+00 0.839999974E+00 0.000000000E+00 0.000000000E+00 0.860000014E+00 0.000000000E+00 0.000000000E+00 0.879999995E+00 0.000000000E+00 0.000000000E+00 0.899999976E+00 0.000000000E+00 0.000000000E+00 0.920000017E+00 0.000000000E+00 0.000000000E+00 0.939999998E+00 0.000000000E+00 0.000000000E+00 0.959999979E+00 0.000000000E+00 0.000000000E+00 0.980000019E+00 0.000000000E+00 0.000000000E+00 0.100000000E+01 0.000000000E+00 0.000000000E+00 0.101999998E+01 0.000000000E+00 0.000000000E+00 0.103999996E+01 0.000000000E+00 0.000000000E+00 0.105999994E+01 0.000000000E+00 0.000000000E+00 0.108000004E+01 0.000000000E+00 0.000000000E+00 0.110000002E+01 0.000000000E+00 0.000000000E+00 0.112000000E+01 0.000000000E+00 0.000000000E+00 0.113999999E+01 0.000000000E+00 0.000000000E+00 0.115999997E+01 0.000000000E+00 0.000000000E+00 0.117999995E+01 0.000000000E+00 0.000000000E+00 0.120000005E+01 0.000000000E+00 0.000000000E+00 0.122000003E+01 0.000000000E+00 0.000000000E+00 0.124000001E+01 0.000000000E+00 0.000000000E+00 0.125999999E+01 0.000000000E+00 0.000000000E+00 0.127999997E+01 0.000000000E+00 0.000000000E+00 0.129999995E+01 0.000000000E+00 0.000000000E+00 0.132000005E+01 0.000000000E+00 0.000000000E+00 0.134000003E+01 0.000000000E+00 0.000000000E+00 0.136000001E+01 0.000000000E+00 0.000000000E+00 0.138000000E+01 0.000000000E+00 0.000000000E+00 0.139999998E+01 0.000000000E+00 0.000000000E+00 0.141999996E+01 0.000000000E+00 0.000000000E+00 0.144000006E+01 0.000000000E+00 0.000000000E+00 0.146000004E+01 0.000000000E+00 0.000000000E+00 0.148000002E+01 0.000000000E+00 0.000000000E+00 0.150000000E+01 0.000000000E+00 0.000000000E+00 0.151999998E+01 0.000000000E+00 0.000000000E+00 0.153999996E+01 0.000000000E+00 0.000000000E+00 0.155999994E+01 0.000000000E+00 0.000000000E+00 0.158000004E+01 0.000000000E+00 0.000000000E+00 0.160000002E+01 0.000000000E+00 0.000000000E+00 0.162000000E+01 0.000000000E+00 0.000000000E+00 0.163999999E+01 0.000000000E+00 0.000000000E+00 0.165999997E+01 0.000000000E+00 0.000000000E+00 0.167999995E+01 0.000000000E+00 0.000000000E+00 0.170000005E+01 0.000000000E+00 0.000000000E+00 0.172000003E+01 0.000000000E+00 0.000000000E+00 0.174000001E+01 0.000000000E+00 0.000000000E+00 0.175999999E+01 0.000000000E+00 0.000000000E+00 0.177999997E+01 0.000000000E+00 0.000000000E+00 0.179999995E+01 0.000000000E+00 0.000000000E+00 0.182000005E+01 0.000000000E+00 0.000000000E+00 0.184000003E+01 0.000000000E+00 0.000000000E+00 0.186000001E+01 0.000000000E+00 0.000000000E+00 0.188000000E+01 0.000000000E+00 0.000000000E+00 0.189999998E+01 0.000000000E+00 0.000000000E+00 0.191999996E+01 0.000000000E+00 0.000000000E+00 0.194000006E+01 0.000000000E+00 0.000000000E+00 0.196000004E+01 0.000000000E+00 0.000000000E+00 0.198000002E+01 0.000000000E+00 0.000000000E+00 0.200000000E+01 0.000000000E+00 0.000000000E+00
0.000000000E+00 0.999999978E-02 0.000000000E+00 0.199999996E-01 0.999999978E-02 0.000000000E+00 0.399999991E-01 0.999999978E-02 0.000000000E+00 0.599999987E-01 0.999999978E-02 0.000000000E+00 0.799999982E-01 0.999999978E-02 0.000000000E+00 0.100000001E+00 0.999999978E-02 0.000000000E+00 0.119999997E+00 0.999999978E-02 0.000000000E+00 0.140000001E+00 0.999999978E-02 0.000000000E+00 0.159999996E+00 0.999999978E-02 0.000000000E+00 0.180000007E+00 0.999999978E-02 0.000000000E+00 0.200000003E+00 0.999999978E-02 0.000000000E+00 0.219999999E+00 0.999999978E-02 0.000000000E+00 0.239999995E+00 0.999999978E-02 0.000000000E+00 0.259999990E+00 0.999999978E-02 0.000000000E+00 0.280000001E+00 0.999999978E-02 0.000000000E+00 0.300000012E+00 0.999999978E-02 0.000000000E+00 0.319999993E+00 0.999999978E-02 0.000000000E+00 0.340000004E+00 0.999999978E-02 0.000000000E+00 0.360000014E+00 0.999999978E-02 0.000000000E+00 0.379999995E+00 0.999999978E-02 0.000000000E+00 0.400000006E+00 0.999999978E-02 0.000000000E+00 0.419999987E+00 0.999999978E-02 0.000000000E+00 0.439999998E+00 0.999999978E-02 0.000000000E+00 0.460000008E+00 0.999999978E-02 0.000000000E+00 0.479999989E+00 0.999999978E-02 0.000000000E+00 0.500000000E+00 0.999999978E-02 0.000000000E+00 0.519999981E+00 0.999999978E-02 0.000000000E+00 0.540000021E+00 0.999999978E-02 0.000000000E+00 0.560000002E+00 0.999999978E-02 0.000000000E+00 0.579999983E+00 0.999999978E-02 0.000000000E+00 0.600000024E+00 0.999999978E-02 0.000000000E+00 0.620000005E+00 0.999999978E-02 0.000000000E+00 0.639999986E+00 0.999999978E-02 0.000000000E+00 0.660000026E+00 0.999999978E-02 0.000000000E+00 0.680000007E+00 0.999999978E-02 0.000000000E+00 0.699999988E+00 0.999999978E-02 0.000000000E+00 0.720000029E+00 0.999999978E-02 0.000000000E+00 0.740000010E+00 0.999999978E-02 0.000000000E+00 0.759999990E+00 0.999999978E-02 0.000000000E+00 0.779999971E+00 0.999999978E-02 0.000000000E+00 0.800000012E+00 0.999999978E-02 0.000000000E+00 0.819999993E+00 0.999999978E-02 0.000000000E+00 0.839999974E+00 0.999999978E-02 0.000000000E+00 0.860000014E+00 0.999999978E-02 0.000000000E+00 0.879999995E+00 0.999999978E-02 0.000000000E+00 0.899999976E+00 0.999999978E-02 0.000000000E+00 0.920000017E+00 0.999999978E-02 0.000000000E+00 0.939999998E+00 0.999999978E-02 0.000000000E+00 0.959999979E+00 0.999999978E-02 0.000000000E+00 0.980000019E+00 0.999999978E-02 0.000000000E+00 0.100000000E+01 0.999999978E-02 0.000000000E+00 0.101999998E+01 0.999999978E-02 0.000000000E+00 0.103999996E+01 0.999999978E-02 0.000000000E+00 0.105999994E+01 0.999999978E-02 0.000000000E+00 0.108000004E+01 0.999999978E-02 0.000000000E+00 0.110000002E+01 0.999999978E-02 0.000000000E+00 0.112000000E+01 0.999999978E-02 0.000000000E+00 0.113999999E+01 0.999999978E-02 0.000000000E+00 0.115999997E+01 0.999999978E-02 0.000000000E+00 0.117999995E+01 0.999999978E-02 0.000000000E+00 0.120000005E+01 0.999999978E-02 0.000000000E+00 0.122000003E+01 0.999999978E-02 0.000000000E+00 0.124000001E+01 0.999999978E-02 0.000000000E+00 0.125999999E+01 0.999999978E-02 0.000000000E+00 0.127999997E+01 0.999999978E-02 0.000000000E+00 0.129999995E+01 0.999999978E-02 0.000000000E+00 0.132000005E+01 0.999999978E-02 0.000000000E+00 0.134000003E+01 0.999999978E-02 0.000000000E+00 0.136000001E+01 0.999999978E-02 0.000000000E+00 0.138000000E+01 0.999999978E-02 0.000000000E+00 0.139999998E+01 0.999999978E-02 0.000000000E+00 0.141999996E+01 0.999999978E-02 0.000000000E+00 0.144000006E+01 0.999999978E-02 0.000000000E+00 0.146000004E+01 0.999999978E-02 0.000000000E+00 0.148000002E+01 0.999999978E-02 0.000000000E+00 0.150000000E+01 0.999999978E-02 0.000000000E+00 0.151999998E+01 0.999999978E-02 0.000000000E+00 0.153999996E+01 0.999999978E-02 0.000000000E+00 0.155999994E+01 0.999999978E-02 0.000000000E+00 0.158000004E+01 0.999999978E-02 0.000000000E+00 0.160000002E+01 0.999999978E-02 0.000000000E+00 0.162000000E+01 0.999999978E-02 0.000000000E+00 0.163999999E+01 0.999999978E-02 0.000000000E+00 0.165999997E+01 0.999999978E-02 0.000000000E+00 0.167999995E+01 0.999999978E-02 0.000000000E+00 0.170000005E+01 0.999999978E-02 0.000000000E+00 0.172000003E+01 0.999999978E-02 0.000000000E+00 0.174000001E+01 0.999999978E-02 0.000000000E+00 0.175999999E+01 0.999999978E-02 0.000000000E+00 0.177999997E+01 0.999999978E-02 0.000000000E+00 0.179999995E+01 0.999999978E-02 0.000000000E+00 0.182000005E+01 0.999999978E-02 0.000000000E+00 0.184000003E+01 0.999999978E-02 0.000000000E+00 0.186000001E+01 0.999999978E-02 0.000000000E+00 0.188000000E+01 0.999999978E-02 0.000000000E+00 0.189999998E+01 0.999999978E-02 0.000000000E+00 0.191999996E+01 0.999999978E-02 0.000000000E+00 0.194000006E+01 0.999999978E-02 0.000000000E+00 0.196000004E+01 0.999999978E-02 0.000000000E+00 0.198000002E+01 0.999999978E-02 0.000000000E+00 0.200000000E+01 0.999999978E-02 0.000000000E+00
[...]
<CellData Scalars="Temperature, U, V">
<DataArray type="Float32" Name="Temp, K"/>
0.000000000E+00 0.000000000E+00 0.000000000E+00 0.000000000E+00 0.000000000E+00 0.000000000E+00 0.000000000E+00 0.000000000E+00 0.000000000E+00 0.000000000E+00 0.363496822E-41 0.194924820E-39 0.307651014E-38 0.182584888E-37 0.468012556E-37 0.580180948E-37 0.392743546E-37 0.163193355E-37 0.453968014E-38 0.897119685E-39 0.131185358E-39 0.145370703E-40 0.118830110E-41 0.700649232E-43 0.000000000E+00 0.000000000E+00 0.000000000E+00 0.000000000E+00 0.000000000E+00 0.000000000E+00 0.000000000E+00 0.000000000E+00 0.000000000E+00 0.000000000E+00 0.000000000E+00 0.000000000E+00 0.000000000E+00 0.238220739E-43 0.980908925E-43 0.771384677E-38 0.868955326E-32 0.696878183E-26 0.302821351E-20 0.440702288E-18 0.612283594E-13 0.397670959E-11 0.124296476E-09 0.221859153E-08 0.223728644E-07 0.309574659E-07 0.421478985E-08 0.318272547E-09 0.144558115E-10 0.383374457E-12 0.477168345E-14 0.367096261E-19 0.222077850E-21 0.522772161E-27 0.667660633E-33 0.609332216E-39 0.770714155E-43 0.154142831E-43 0.000000000E+00 0.000000000E+00 0.000000000E+00 0.000000000E+00 0.000000000E+00 0.000000000E+00 0.000000000E+00 0.000000000E+00 0.000000000E+00 0.000000000E+00 0.000000000E+00 0.000000000E+00 0.000000000E+00 0.000000000E+00 0.111823617E-41 0.128611173E-40 0.115949040E-39 0.796335497E-39 0.404820833E-38 0.145883494E-37 0.349854424E-37 0.508802336E-37 0.396762582E-37 0.146964455E-37 0.231854640E-38 0.136145955E-39 0.230653727E-41 0.000000000E+00 0.000000000E+00 0.000000000E+00 0.000000000E+00 0.000000000E+00 0.000000000E+00 0.000000000E+00 0.000000000E+00 0.000000000E+00 0.000000000E+00 0.000000000E+00
0.000000000E+00 0.000000000E+00 0.000000000E+00 0.000000000E+00 0.000000000E+00 0.000000000E+00 0.000000000E+00 0.000000000E+00 0.700649232E-43 0.364141419E-40 0.366931544E-38 0.104826318E-36 0.111352126E-35 0.509617338E-35 0.111161480E-34 0.126975832E-34 0.841465764E-35 0.355971315E-35 0.103329049E-35 0.216537450E-36 0.339492691E-37 0.408517458E-38 0.384468654E-39 0.286565536E-40 0.167735426E-41 0.700649232E-43 0.000000000E+00 0.000000000E+00 0.000000000E+00 0.000000000E+00 0.000000000E+00 0.000000000E+00 0.000000000E+00 0.000000000E+00 0.000000000E+00 0.000000000E+00 0.126116862E-43 0.546506401E-43 0.161311874E-39 0.188177796E-33 0.168613758E-27 0.105229709E-21 0.358910657E-16 0.432863906E-14 0.360032804E-12 0.159279655E-10 0.426281788E-09 0.706865677E-08 0.690664663E-07 0.951303818E-07 0.130232198E-07 0.102096220E-08 0.503050240E-10 0.158251266E-11 0.304618798E-13 0.328484327E-15 0.236363779E-17 0.705165288E-23 0.115358043E-28 0.132380294E-34 0.117078487E-40 0.560519386E-43 0.980908925E-44 0.000000000E+00 0.000000000E+00 0.000000000E+00 0.000000000E+00 0.000000000E+00 0.000000000E+00 0.000000000E+00 0.000000000E+00 0.000000000E+00 0.000000000E+00 0.700649232E-43 0.146856079E-41 0.251603139E-40 0.336942216E-39 0.358594659E-38 0.299026078E-37 0.191623933E-36 0.918749298E-36 0.317369951E-35 0.748151214E-35 0.111376267E-34 0.946066968E-35 0.413323085E-35 0.847561273E-36 0.739987043E-37 0.238039691E-38 0.215267470E-40 0.000000000E+00 0.000000000E+00 0.000000000E+00 0.000000000E+00 0.000000000E+00 0.000000000E+00 0.000000000E+00 0.000000000E+00 0.000000000E+00 0.000000000E+00
0.000000000E+00 0.000000000E+00 0.000000000E+00 0.000000000E+00 0.000000000E+00 0.000000000E+00 0.000000000E+00 0.140129846E-42 0.152081521E-39 0.285418153E-37 0.143993403E-35 0.265072713E-34 0.209326248E-33 0.785282481E-33 0.151582834E-32 0.163276459E-32 0.107081750E-32 0.463031357E-33 0.140360695E-33 0.311768308E-34 0.523665837E-35 0.680392017E-36 0.695323625E-37 0.565945213E-38 0.370277705E-39 0.226449832E-40 0.132843094E-41 0.000000000E+00 0.000000000E+00 0.000000000E+00 0.000000000E+00 0.000000000E+00 0.000000000E+00 0.000000000E+00 0.000000000E+00 0.420389539E-44 0.546506401E-43 0.274794629E-41 0.313321225E-35 0.270307277E-29 0.155855535E-23 0.441753480E-18 0.178356935E-15 0.182042424E-13 0.113277974E-11 0.430663005E-10 0.105804476E-08 0.167216481E-07 0.159593128E-06 0.218365471E-06 0.300291703E-07 0.241484011E-08 0.125147073E-09 0.430583043E-11 0.971774812E-13 0.137434325E-14 0.117356167E-16 0.257654192E-19 0.932692620E-25 0.167475501E-30 0.202549689E-36 0.201786979E-42 0.280259693E-43 0.000000000E+00 0.000000000E+00 0.000000000E+00 0.000000000E+00 0.000000000E+00 0.000000000E+00 0.000000000E+00 0.000000000E+00 0.000000000E+00 0.111823617E-41 0.200581862E-40 0.325409529E-39 0.495363071E-38 0.607893419E-37 0.595666507E-36 0.460047945E-35 0.275200734E-34 0.124495975E-33 0.411883532E-33 0.950452570E-33 0.143201357E-32 0.129388188E-32 0.641026227E-33 0.160803368E-33 0.189110409E-34 0.943767924E-36 0.170295514E-37 0.819801641E-40 0.700649232E-43 0.000000000E+00 0.000000000E+00 0.000000000E+00 0.000000000E+00 0.000000000E+00 0.000000000E+00 0.000000000E+00 0.000000000E+00
0.000000000E+00 0.000000000E+00 0.000000000E+00 0.000000000E+00 0.000000000E+00 0.000000000E+00 0.140129846E-42 0.307586414E-39 0.106352287E-36 0.932121031E-35 0.290281810E-33 0.383981364E-32 0.240800929E-31 0.772790910E-31 0.135748674E-30 0.140145458E-30 0.916374783E-31 0.405983070E-31 0.128488321E-31 0.302057600E-32 0.542552219E-33 0.759926792E-34 0.842448691E-35 0.747433364E-36 0.535200669E-37 0.358544913E-38 0.223720102E-39 0.128597160E-40 0.629183010E-42 0.000000000E+00 0.000000000E+00 0.000000000E+00 0.000000000E+00 0.000000000E+00 0.000000000E+00 0.966895940E-43 0.994921910E-43 0.450865399E-37 0.380302809E-31 0.222056749E-25 0.666430662E-20 0.290131098E-17 0.591718423E-15 0.517698745E-13 0.279747406E-11 0.974467382E-10 0.226414820E-08 0.345682061E-07 0.323737794E-06 0.439727103E-06 0.607435666E-07 0.497814945E-08 0.267154576E-09 0.973022270E-11 0.240271561E-12 0.389029188E-14 0.388910976E-16 0.169154920E-18 0.348265934E-21 0.120949084E-26 0.217577153E-32 0.273057719E-38 0.504467447E-43 0.742688186E-43 0.000000000E+00 0.000000000E+00 0.000000000E+00 0.000000000E+00 0.000000000E+00 0.000000000E+00 0.629183010E-42 0.116027513E-40 0.199816753E-39 0.316694574E-38 0.469184938E-37 0.652617070E-36 0.734778388E-35 0.663799995E-34 0.475616907E-33 0.266074469E-32 0.113733362E-31 0.360440745E-31 0.812143287E-31 0.122878480E-30 0.116127075E-30 0.634244325E-31 0.186517555E-31 0.276741749E-32 0.192316558E-33 0.561678343E-35 0.577122811E-37 0.148935606E-39 0.700649232E-43 0.000000000E+00 0.000000000E+00 0.000000000E+00 0.000000000E+00 0.000000000E+00 0.000000000E+00 0.000000000E+00
0.000000000E+00 0.000000000E+00 0.000000000E+00 0.000000000E+00 0.000000000E+00 0.700649232E-43 0.326527766E-39 0.207156104E-36 0.312516021E-34 0.161986079E-32 0.350824673E-31 0.358375314E-30 0.186889552E-29 0.529364452E-29 0.863857746E-29 0.864953720E-29 0.566849707E-29 0.257639435E-29 0.850559971E-30 0.211188069E-30 0.404588640E-31 0.609273893E-32 0.731008529E-33 0.705701203E-34 0.552194462E-35 0.404241424E-36 0.275911912E-37 0.174788862E-38 0.102109816E-39 0.545105103E-41 0.210194770E-42 0.000000000E+00 0.000000000E+00 0.000000000E+00 0.882818033E-43 0.756701171E-43 0.574651481E-39 0.440542360E-33 0.239123053E-27 0.687479720E-22 0.459839816E-19 0.112635712E-16 0.160534428E-14 0.123217327E-12 0.605478124E-11 0.198366240E-09 0.442256010E-08 0.656990338E-07 0.605156686E-06 0.815960334E-06 0.113290938E-06 0.943065448E-08 0.519835675E-09 0.197340269E-10 0.518781036E-12 0.922222791E-14 0.105407387E-15 0.657043364E-18 0.240954865E-20 0.327923582E-23 0.120810802E-28 0.237711332E-34 0.334209684E-40 0.868805048E-43 0.868805048E-43 0.000000000E+00 0.000000000E+00 0.000000000E+00 0.210194770E-42 0.517219263E-41 0.940033049E-40 0.158071231E-38 0.245868830E-37 0.356251212E-36 0.482998317E-35 0.614874577E-34 0.636333939E-33 0.531242044E-32 0.354068479E-31 0.185719644E-30 0.751630742E-30 0.228367369E-29 0.501708249E-29 0.758090488E-29 0.740197019E-29 0.436406058E-29 0.145819360E-29 0.260739012E-30 0.234917418E-31 0.986516369E-33 0.171160027E-34 0.100863233E-36 0.139639392E-39 0.000000000E+00 0.000000000E+00 0.000000000E+00 0.000000000E+00 0.000000000E+00 0.000000000E+00 0.000000000E+00
0.000000000E+00 0.000000000E+00 0.000000000E+00 0.000000000E+00 0.000000000E+00 0.191638775E-39 0.223168708E-36 0.577729702E-34 0.493740762E-32 0.172304397E-30 0.280885767E-29 0.232810053E-28 0.104421213E-27 0.267276802E-27 0.411561840E-27 0.403198297E-27 0.265837940E-27 0.124038507E-27 0.426637960E-28 0.111620761E-28 0.227394812E-29 0.366967566E-30 0.474996843E-31 0.497562661E-32 0.424503474E-33 0.338962320E-34 0.252399027E-35 0.174621866E-36 0.111719081E-37 0.656061316E-39 0.350142447E-40 0.167735426E-41 0.700649232E-43 0.238220739E-43 0.476441478E-43 0.753338054E-41 0.495811701E-35 0.234342322E-29 0.591137948E-24 0.532755256E-21 0.188666844E-18 0.337821588E-16 0.382987938E-14 0.263600394E-12 0.120364751E-10 0.375743547E-09 0.810001310E-08 0.117528856E-06 0.106585003E-05 0.142699309E-05 0.199314456E-06 0.168267285E-07 0.948590984E-09 0.372294244E-10 0.102793555E-11 0.196646237E-13 0.251298979E-15 0.197279226E-17 0.991718953E-20 0.255490369E-22 0.264360540E-25 0.113087505E-30 0.260742318E-36 0.431599927E-42 0.364337601E-43 0.308285662E-43 0.700649232E-43 0.167735426E-41 0.336872151E-40 0.616502661E-39 0.102683648E-37 0.157575732E-36 0.224437092E-35 0.298103961E-34 0.370597277E-33 0.432781351E-32 0.412849250E-31 0.319527247E-30 0.198741112E-29 0.980324898E-29 0.376512563E-28 0.109798217E-27 0.235018174E-27 0.353232596E-27 0.353072335E-27 0.221154945E-27 0.819950651E-28 0.170852947E-28 0.190004857E-29 0.106077515E-30 0.273196973E-32 0.283675198E-34 0.958691394E-37 0.708692685E-40 0.000000000E+00 0.000000000E+00 0.000000000E+00 0.000000000E+00 0.000000000E+00 0.000000000E+00
0.000000000E+00 0.000000000E+00 0.000000000E+00 0.000000000E+00 0.640897866E-40 0.137938832E-36 0.614518715E-34 0.863170718E-32 0.480741360E-30 0.123260194E-28 0.159447379E-27 0.111155095E-26 0.439943451E-26 0.103632457E-25 0.152396972E-25 0.147062901E-25 0.978203392E-26 0.468673665E-26 0.167724597E-26 0.461276303E-27 0.996193102E-28 0.171676161E-28 0.238851800E-29 0.270522345E-30 0.250862984E-31 0.217949546E-32 0.176677122E-33 0.133126271E-34 0.928766721E-36 0.596961441E-37 0.350877428E-38 0.186467984E-39 0.891365953E-41 0.407777853E-42 0.193379188E-42 0.616092304E-37 0.247798030E-31 0.538677213E-26 0.529077176E-23 0.242016528E-20 0.598614686E-18 0.866185686E-16 0.834365061E-14 0.524163070E-12 0.225216894E-10 0.674845124E-09 0.141263667E-07 0.200601235E-06 0.179168478E-05 0.238268353E-05 0.335129755E-06 0.286784143E-07 0.164969194E-08 0.666340802E-10 0.191757265E-11 0.390057385E-13 0.547337709E-15 0.506636007E-17 0.315789899E-19 0.116758028E-21 0.238648494E-24 0.234190650E-27 0.118842745E-32 0.329710675E-38 0.154142831E-42 0.428797330E-42 0.914207118E-41 0.185209618E-39 0.337856983E-38 0.559897938E-37 0.851938168E-36 0.119888485E-34 0.156801843E-33 0.191343793E-32 0.218674231E-31 0.234997307E-30 0.207371403E-29 0.149335374E-28 0.869849088E-28 0.404733696E-27 0.147866257E-26 0.414418062E-26 0.863955071E-26 0.128783469E-25 0.130856000E-25 0.860098358E-26 0.347376826E-26 0.822147138E-27 0.108891008E-27 0.766848805E-29 0.268878228E-30 0.427959400E-32 0.265986017E-34 0.511588510E-37 0.198493927E-40 0.000000000E+00 0.000000000E+00 0.000000000E+00 0.000000000E+00 0.000000000E+00
0.000000000E+00 0.000000000E+00 0.000000000E+00 0.123706628E-40 0.499698828E-37 0.386732504E-34 0.895492184E-32 0.793172430E-30 0.317119743E-28 0.631843978E-27 0.673880037E-26 0.406108552E-25 0.144717334E-24 0.318275596E-24 0.451216013E-24 0.431130974E-24 0.289907221E-24 0.142625066E-24 0.530326658E-25 0.152957849E-25 0.349128189E-26 0.640232125E-27 0.953762939E-28 0.116336295E-28 0.116813830E-29 0.110060607E-30 0.968658038E-32 0.793019070E-33 0.601502353E-34 0.420930651E-35 0.270347356E-36 0.158160830E-37 0.833575003E-39 0.390429778E-40 0.943553111E-39 0.293992698E-33 0.533119798E-28 0.550172981E-25 0.272605559E-22 0.841655223E-20 0.162268672E-17 0.199823146E-15 0.169884723E-13 0.987407855E-12 0.402497549E-10 0.116285359E-08 0.236939890E-07 0.329620860E-06 0.289917693E-05 0.383105316E-05 0.543188833E-06 0.471174921E-07 0.276252932E-08 0.114537060E-09 0.341910354E-11 0.733588402E-13 0.111475952E-14 0.117122587E-16 0.859520208E-19 0.408709996E-21 0.124118497E-23 0.242192990E-26 0.235972253E-29 0.147237254E-34 0.562943632E-40 0.417292670E-40 0.855672079E-39 0.156710654E-37 0.259803426E-36 0.394022098E-35 0.550681680E-34 0.712874279E-33 0.858312473E-32 0.964942683E-31 0.101712620E-29 0.100969714E-28 0.827463222E-28 0.556569872E-27 0.304666074E-26 0.134121237E-25 0.467187248E-25 0.126008438E-24 0.255843640E-24 0.377394952E-24 0.387699324E-24 0.264814739E-24 0.114817164E-24 0.302497804E-25 0.464310355E-26 0.397071432E-27 0.179248482E-28 0.397399657E-30 0.391115586E-32 0.144387928E-34 0.155389202E-37 0.307585013E-41 0.000000000E+00 0.000000000E+00 0.000000000E+00 0.000000000E+00
0.000000000E+00 0.000000000E+00 0.132843094E-41 0.106784002E-37 0.146193027E-34 0.563599252E-32 0.796075996E-30 0.494934655E-28 0.150683083E-26 0.243030218E-25 0.220034014E-24 0.117129308E-23 0.381894506E-23 0.793283812E-23 0.109236733E-22 0.103768160E-22 0.706496411E-23 0.356832632E-23 0.137670891E-23 0.415500040E-24 0.999460143E-25 0.194368933E-25 0.308860403E-26 0.404083021E-27 0.437514348E-28 0.445304343E-29 0.424047597E-30 0.376085958E-31 0.309306800E-32 0.234901447E-33 0.163991033E-34 0.104659731E-35 0.605920391E-37 0.316955075E-38 0.519465906E-35 0.607021192E-30 0.622453721E-27 0.319765409E-24 0.106116850E-21 0.248223250E-19 0.395323346E-17 0.427322669E-15 0.328353169E-13 0.178370665E-11 0.693704261E-10 0.193795469E-08 0.384899295E-07 0.524772815E-06 0.454378460E-05 0.596828750E-05 0.853931908E-06 0.751081402E-07 0.448625759E-08 0.190635993E-09 0.588484686E-11 0.132423179E-12 0.215657108E-14 0.251128709E-16 0.210366596E-18 0.121398580E-20 0.488012588E-23 0.142639487E-25 0.280064911E-28 0.289056853E-31 0.291963853E-36 0.335761061E-38 0.620608689E-37 0.103494748E-35 0.157289897E-34 0.219475333E-33 0.282688722E-32 0.337574706E-31 0.375282637E-30 0.390042981E-29 0.380684790E-28 0.350531865E-27 0.267863094E-26 0.168920712E-25 0.871923275E-25 0.364200539E-24 0.121221918E-23 0.315069724E-23 0.623099023E-23 0.908046744E-23 0.939091024E-23 0.661408751E-23 0.304249905E-23 0.877985917E-24 0.152853264E-24 0.154196453E-25 0.860571173E-27 0.250571099E-28 0.351217211E-30 0.212171661E-32 0.457234227E-35 0.266980989E-38 0.280259693E-42 0.000000000E+00 0.000000000E+00 0.000000000E+00
0.000000000E+00 0.700649232E-43 0.133064219E-38 0.332579164E-35 0.217543891E-32 0.494862668E-30 0.480011587E-28 0.222716965E-26 0.539489277E-25 0.726630725E-24 0.571416524E-23 0.273384511E-22 0.826291156E-22 0.163642530E-21 0.220201017E-21 0.208639106E-21 0.143993760E-21 0.746433883E-22 0.298421379E-22 0.940498588E-23 0.237774983E-23 0.488815885E-24 0.825529132E-25 0.115383087E-25 0.134144304E-26 0.146873512E-27 0.150728213E-28 0.144301542E-29 0.128280217E-30 0.105414917E-31 0.797160851E-33 0.552060820E-34 0.348064925E-35 0.330783296E-36 0.180156690E-31 0.891015164E-29 0.413287425E-26 0.139303498E-23 0.346933377E-21 0.654297926E-19 0.891780275E-17 0.863454269E-15 0.609131140E-13 0.311612259E-11 0.116089360E-09 0.314186543E-08 0.608713009E-07 0.813402380E-06 0.693002221E-05 0.905086563E-05 0.130812464E-05 0.116725545E-06 0.710237424E-08 0.309052950E-09 0.984526263E-11 0.231390997E-12 0.400706893E-14 0.509075272E-16 0.477020222E-18 0.322476746E-20 0.161257353E-22 0.630144063E-25 0.189361091E-27 0.435947455E-30 0.981136186E-33 0.219362557E-36 0.355779106E-35 0.544859712E-34 0.763192967E-33 0.983302200E-32 0.117076404E-30 0.129380024E-29 0.133283666E-28 0.128574120E-27 0.116680829E-26 0.100076481E-25 0.715926154E-25 0.424824376E-24 0.207433874E-23 0.824311999E-23 0.262707879E-22 0.658829365E-22 0.126941036E-21 0.182530132E-21 0.189385763E-21 0.136676968E-21 0.660661163E-22 0.206084105E-22 0.399952085E-23 0.465206412E-24 0.311206028E-25 0.113935098E-26 0.213923917E-28 0.188085021E-30 0.685514648E-33 0.835624991E-36 0.250487706E-39 0.000000000E+00 0.000000000E+00 0.000000000E+00
0.000000000E+00 0.930251986E-40 0.448506402E-36 0.514256600E-33 0.192030274E-30 0.293617740E-28 0.208272106E-26 0.756312196E-25 0.150701779E-23 0.173669732E-22 0.120820952E-21 0.526942424E-21 0.149239347E-20 0.283967025E-20 0.375239660E-20 0.355547390E-20 0.248958140E-20 0.132407079E-20 0.547858774E-21 0.179952375E-21 0.476976258E-22 0.103347295E-22 0.184864761E-23 0.274987963E-24 0.341871362E-25 0.400957275E-26 0.441576592E-27 0.454494550E-28 0.435102369E-29 0.385594473E-30 0.314845906E-31 0.235726878E-32 0.160987602E-33 0.119543571E-34 0.255263465E-30 0.714111351E-28 0.205290666E-25 0.506960238E-23 0.100656834E-20 0.159031780E-18 0.189897441E-16 0.167016030E-14 0.109344533E-12 0.529737062E-11 0.189590760E-09 0.497705743E-08 0.940970679E-07 0.123214932E-05 0.103237398E-04 0.134102056E-04 0.195979874E-05 0.177519723E-06 0.110052722E-07 0.490177843E-09 0.160920374E-10 0.393824974E-12 0.720990718E-14 0.988512662E-16 0.102169865E-17 0.790374549E-20 0.473188748E-22 0.232740764E-24 0.959099438E-27 0.358110122E-29 0.141350330E-31 0.107104080E-34 0.164233757E-33 0.232231509E-32 0.300946361E-31 0.359196514E-30 0.396686123E-29 0.407195546E-28 0.390293531E-27 0.350930282E-26 0.297367682E-25 0.238549147E-24 0.160364684E-23 0.898459954E-23 0.416229866E-22 0.157751052E-21 0.482310820E-21 0.116851267E-20 0.219421290E-20 0.311012337E-20 0.322854793E-20 0.237527155E-20 0.119696761E-20 0.399223698E-21 0.851508830E-22 0.112130748E-22 0.877690292E-24 0.390878915E-25 0.937837075E-27 0.112680421E-28 0.610562463E-31 0.130080147E-33 0.847818137E-37 0.116714149E-40 0.000000000E+00 0.000000000E+00
0.328464360E-41 0.343752246E-37 0.731446768E-34 0.463416725E-31 0.113890996E-28 0.124743523E-26 0.681675724E-25 0.200780030E-23 0.337661466E-22 0.339411633E-21 0.212045145E-20 0.853021848E-20 0.228422243E-19 0.420254797E-19 0.547548458E-19 0.519919915E-19 0.369594961E-19 0.201590523E-19 0.862246043E-20 0.294646843E-20 0.816904418E-21 0.186036701E-21 0.351351327E-22 0.554245586E-23 0.733951847E-24 0.918273413E-25 0.108065447E-25 0.119070426E-26 0.122251063E-27 0.116391861E-28 0.102254363E-29 0.824847501E-31 0.607802909E-32 0.127442138E-32 0.205541074E-29 0.416586688E-27 0.849667228E-25 0.163136593E-22 0.267892337E-20 0.363738897E-18 0.386809937E-16 0.312152203E-14 0.191110582E-12 0.880471997E-11 0.303353120E-09 0.773038522E-08 0.142634121E-06 0.182965039E-05 0.150670285E-04 0.194703207E-04 0.287994908E-05 0.264990348E-06 0.167435488E-07 0.763248353E-09 0.257985942E-10 0.655993760E-12 0.126409444E-13 0.185597704E-15 0.209466574E-17 0.182411888E-19 0.127460460E-21 0.760759412E-24 0.405190392E-26 0.213914182E-28 0.116024396E-30 0.486342880E-33 0.618932673E-32 0.811327612E-31 0.976122327E-30 0.108315587E-28 0.111381741E-27 0.106639145E-26 0.955058182E-26 0.803812531E-25 0.638618993E-24 0.481031208E-23 0.304959616E-22 0.161829249E-21 0.713264251E-21 0.258412637E-20 0.759303900E-20 0.177924336E-19 0.325730671E-19 0.454791753E-19 0.471292229E-19 0.351982928E-19 0.183704148E-19 0.649168235E-20 0.150384364E-20 0.220874187E-21 0.198451292E-22 0.104800004E-23 0.310118756E-25 0.483604187E-27 0.365441934E-29 0.118196897E-31 0.139090053E-34 0.434096480E-38 0.210194770E-42 0.000000000E+00