<?xml version="1.0"?>
<VTKFile type="StructuredGrid">
<StructuredGrid WholeExtent="     0   100     0   100     0     0">
<Piece Extent="     0   100     0   100     0     0">
<Points>
<DataArray type="Float32" NumberOfComponents="3"/>
0.000000000E+00 0.000000000E+00 0.000000000E+00 0.199999996E-01 0.000000000E+00 0.000000000E+00 0.399999991E-01 0.000000000E+00 0.000000000E+00 0.599999987E-01 0.000000000E+00 0.000000000E+00 0.799999982E-01 0.000000000E+00 0.000000000E+00 0.100000001E+00 0.000000000E+00 0.000000000E+00 0.119999997E+00 0.000000000E+00 0.000000000E+00 0.140000001E+00 0.000000000E+00 0.000000000E+00 0.159999996E+00 0.000000000E+00 0.000000000E+00 0.180000007E+00 0.000000000E+00 0.000000000E+00 0.200000003E+00 0.000000000E+00 0.000000000E+00 0.219999999E+00 0.000000000E+00 0.000000000E+00 0.239999995E+00 0.000000000E+00 0.000000000E+00 0.259999990E+00 0.000000000E+00 0.000000000E+00 0.280000001E+00 0.000000000E+00 0.000000000E+00 0.300000012E+00 0.000000000E+00 0.000000000E+00 0.319999993E+00 0.000000000E+00 0.000000000E+00 0.340000004E+00 0.000000000E+00 0.000000000E+00 0.360000014E+00 0.000000000E+00 0.000000000E+00 0.379999995E+00 0.000000000E+00 0.000000000E+00 0.400000006E+00 0.000000000E+00 0.000000000E+00 0.419999987E+00 0.000000000E+00 0.000000000E+00 0.439999998E+00 0.000000000E+00 0.000000000E+00 0.460000008E+00 0.000000000E+00 0.000000000E+00 0.479999989E+00 0.000000000E+00 0.000000000E+00 0.500000000E+00 0.000000000E+00 0.000000000E+00 0.519999981E+00 0.000000000E+00 0.000000000E+00 0.540000021E+00 0.000000000E+00 0.000000000E+00 0.560000002E+00 0.000000000E+00 0.000000000E+00 0.579999983E+00 0.000000000E+00 0.000000000E+00 0.600000024E+00 0.000000000E+00 0.000000000E+00 0.620000005E+00 0.000000000E+00 0.000000000E+00 0.639999986E+00 0.000000000E+00 0.000000000E+00 0.660000026E+00 0.000000000E+00 0.000000000E+00 0.680000007E+00 0.000000000E+00 0.000000000E+00 0.699999988E+00 0.000000000E+00 0.000000000E+00 0.720000029E+00 0.000000000E+00 0.000000000E+00 0.740000010E+00 0.000000000E+00 0.000000000E+00 0.759999990E+00 0.000000000E+00 0.000000000E+00 0.779999971E+00 0.000000000E+00 0.000000000E+00 0.800000012E+00 0.000000000E+00 0.000000000E+00 0.819999993E+00 0.000000000E+00 0.000000000E+00 0.839999974E+00 0.000000000E+00 0.000000000E+00 0.860000014E+00 0.000000000E+00 0.000000000E+00 0.879999995E+00 0.000000000E+00 0.000000000E+00 0.899999976E+00 0.000000000E+00 0.000000000E+00 0.920000017E+00 0.000000000E+00 0.000000000E+00 0.939999998E+00 0.000000000E+00 0.000000000E+00 0.959999979E+00 0.000000000E+00 0.000000000E+00 0.980000019E+00 0.000000000E+00 0.000000000E+00 0.100000000E+01 0.000000000E+00 0.000000000E+00 0.101999998E+01 0.000000000E+00 0.000000000E+00 0.103999996E+01 0.000000000E+00 0.000000000E+00 0.105999994E+01 0.000000000E+00 0.000000000E+00 0.108000004E+01 0.000000000E+00 0.000000000E+00 0.110000002E+01 0.000000000E+00 0.000000000E+00 0.112000000E+01 0.000000000E+00 0.000000000E+00 0.113999999E+01 0.000000000E+00 0.000000000E+00 0.115999997E+01 0.000000000E+00 0.000000000E+00 0.117999995E+01 0.000000000E+00 0.000000000E+00 0.120000005E+01 0.000000000E+00 0.000000000E+00 0.122000003E+01 0.000000000E+00 0.000000000E+00 0.124000001E+01 0.000000000E+00 0.000000000E+00 0.125999999E+01 0.000000000E+00 0.000000000E+00 0.127999997E+01 0.000000000E+00 0.000000000E+00 0.129999995E+01 0.000000000E+00 0.000000000E+00 0.132000005E+01 0.000000000E+00 0.000000000E+00 0.134000003E+01 0.000000000E+00 0.000000000E+00 0.136000001E+01 0.000000000E+00 0.000000000E+00 0.138000000E+01 0.000000000E+00 0.000000000E+00 0.139999998E+01 0.000000000E+00 0.000000000E+00 0.141999996E+01 0.000000000E+00 0.000000000E+00 0.144000006E+01 0.000000000E+00 0.000000000E+00 0.146000004E+01 0.000000000E+00 0.000000000E+00 0.148000002E+01 0.000000000E+00 0.000000000E+00 0.150000000E+01 0.000000000E+00 0.000000000E+00 0.151999998E+01 0.000000000E+00 0.000000000E+00 0.153999996E+01 0.000000000E+00 0.000000000E+00 0.155999994E+01 0.000000000E+00 0.000000000E+00 0.158000004E+01 0.000000000E+00 0.000000000E+00 0.160000002E+01 0.000000000E+00 0.000000000E+00 0.162000000E+01 0.000000000E+00 0.000000000E+00 0.163999999E+01 0.000000000E+00 0.000000000E+00 0.165999997E+01 0.000000000E+00 0.000000000E+00 0.167999995E+01 0.000000000E+00 0.000000000E+00 0.170000005E+01 0.000000000E+00 0.000000000E+00 0.172000003E+01 0.000000000E+00 0.000000000E+00 0.174000001E+01 0.000000000E+00 0.000000000E+00 0.175999999E+01 0.000000000E+00 0.000000000E+00 0.177999997E+01 0.000000000E+00 0.000000000E+00 0.179999995E+01 0.000000000E+00 0.000000000E+00 0.182000005E+01 0.000000000E+00 0.000000000E+00 0.184000003E+01 0.000000000E+00 0.000000000E+00 0.186000001E+01 0.000000000E+00 0.000000000E+00 0.188000000E+01 0.000000000E+00 0.000000000E+00 0.189999998E+01 0.000000000E+00 0.000000000E+00 0.191999996E+01 0.000000000E+00 0.000000000E+00 0.194000006E+01 0.000000000E+00 0.000000000E+00 0.196000004E+01 0.000000000E+00 0.000000000E+00 0.198000002E+01 0.000000000E+00 0.000000000E+00 0.200000000E+01 0.000000000E+00 0.000000000E+00
0.000000000E+00 0.999999978E-02 0.000000000E+00 0.199999996E-01 0.999999978E-02 0.000000000E+00 0.399999991E-01 0.999999978E-02 0.000000000E+00 0.599999987E-01 0.999999978E-02 0.000000000E+00 0.799999982E-01 0.999999978E-02 0.000000000E+00 0.100000001E+00 0.999999978E-02 0.000000000E+00 0.119999997E+00 0.999999978E-02 0.000000000E+00 0.140000001E+00 0.999999978E-02 0.000000000E+00 0.159999996E+00 0.999999978E-02 0.000000000E+00 0.180000007E+00 0.999999978E-02 0.000000000E+00 0.200000003E+00 0.999999978E-02 0.000000000E+00 0.219999999E+00 0.999999978E-02 0.000000000E+00 0.239999995E+00 0.999999978E-02 0.000000000E+00 0.259999990E+00 0.999999978E-02 0.000000000E+00 0.280000001E+00 0.999999978E-02 0.000000000E+00 0.300000012E+00 0.999999978E-02 0.000000000E+00 0.319999993E+00 0.999999978E-02 0.000000000E+00 0.340000004E+00 0.999999978E-02 0.000000000E+00 0.360000014E+00 0.999999978E-02 0.000000000E+00 0.379999995E+00 0.999999978E-02 0.000000000E+00 0.400000006E+00 0.999999978E-02 0.000000000E+00 0.419999987E+00 0.999999978E-02 0.000000000E+00 0.439999998E+00 0.999999978E-02 0.000000000E+00 0.460000008E+00 0.999999978E-02 0.000000000E+00 0.479999989E+00 0.999999978E-02 0.000000000E+00 0.500000000E+00 0.999999978E-02 0.000000000E+00 0.519999981E+00 0.999999978E-02 0.000000000E+00 0.540000021E+00 0.999999978E-02 0.000000000E+00 0.560000002E+00 0.999999978E-02 0.000000000E+00 0.579999983E+00 0.999999978E-02 0.000000000E+00 0.600000024E+00 0.999999978E-02 0.000000000E+00 0.620000005E+00 0.999999978E-02 0.000000000E+00 0.639999986E+00 0.999999978E-02 0.000000000E+00 0.660000026E+00 0.999999978E-02 0.000000000E+00 0.680000007E+00 0.999999978E-02 0.000000000E+00 0.699999988E+00 0.999999978E-02 0.000000000E+00 0.720000029E+00 0.999999978E-02 0.000000000E+00 0.740000010E+00 0.999999978E-02 0.000000000E+00 0.759999990E+00 0.999999978E-02 0.000000000E+00 0.779999971E+00 0.999999978E-02 0.000000000E+00 0.800000012E+00 0.999999978E-02 0.000000000E+00 0.819999993E+00 0.999999978E-02 0.000000000E+00 0.839999974E+00 0.999999978E-02 0.000000000E+00 0.860000014E+00 0.999999978E-02 0.000000000E+00 0.879999995E+00 0.999999978E-02 0.000000000E+00 0.899999976E+00 0.999999978E-02 0.000000000E+00 0.920000017E+00 0.999999978E-02 0.000000000E+00 0.939999998E+00 0.999999978E-02 0.000000000E+00 0.959999979E+00 0.999999978E-02 0.000000000E+00 0.980000019E+00 0.999999978E-02 0.000000000E+00 0.100000000E+01 0.999999978E-02 0.000000000E+00 0.101999998E+01 0.999999978E-02 0.000000000E+00 0.103999996E+01 0.999999978E-02 0.000000000E+00 0.105999994E+01 0.999999978E-02 0.000000000E+00 0.108000004E+01 0.999999978E-02 0.000000000E+00 0.110000002E+01 0.999999978E-02 0.000000000E+00 0.112000000E+01 0.999999978E-02 0.000000000E+00 0.113999999E+01 0.999999978E-02 0.000000000E+00 0.115999997E+01 0.999999978E-02 0.000000000E+00 0.117999995E+01 0.999999978E-02 0.000000000E+00 0.120000005E+01 0.999999978E-02 0.000000000E+00 0.122000003E+01 0.999999978E-02 0.000000000E+00 0.124000001E+01 0.999999978E-02 0.000000000E+00 0.125999999E+01 0.999999978E-02 0.000000000E+00 0.127999997E+01 0.999999978E-02 0.000000000E+00 0.129999995E+01 0.999999978E-02 0.000000000E+00 0.132000005E+01 0.999999978E-02 0.000000000E+00 0.134000003E+01 0.999999978E-02 0.000000000E+00 0.136000001E+01 0.999999978E-02 0.000000000E+00 0.138000000E+01 0.999999978E-02 0.000000000E+00 0.139999998E+01 0.999999978E-02 0.000000000E+00 0.141999996E+01 0.999999978E-02 0.000000000E+00 0.144000006E+01 0.999999978E-02 0.000000000E+00 0.146000004E+01 0.999999978E-02 0.000000000E+00 0.148000002E+01 0.999999978E-02 0.000000000E+00 0.150000000E+01 0.999999978E-02 0.000000000E+00 0.151999998E+01 0.999999978E-02 0.000000000E+00 0.153999996E+01 0.999999978E-02 0.000000000E+00 0.155999994E+01 0.999999978E-02 0.000000000E+00 0.158000004E+01 0.999999978E-02 0.000000000E+00 0.160000002E+01 0.999999978E-02 0.000000000E+00 0.162000000E+01 0.999999978E-02 0.000000000E+00 0.163999999E+01 0.999999978E-02 0.000000000E+00 0.165999997E+01 0.999999978E-02 0.000000000E+00 0.167999995E+01 0.999999978E-02 0.000000000E+00 0.170000005E+01 0.999999978E-02 0.000000000E+00 0.172000003E+01 0.999999978E-02 0.000000000E+00 0.174000001E+01 0.999999978E-02 0.000000000E+00 0.175999999E+01 0.999999978E-02 0.000000000E+00 0.177999997E+01 0.999999978E-02 0.000000000E+00 0.179999995E+01 0.999999978E-02 0.000000000E+00 0.182000005E+01 0.999999978E-02 0.000000000E+00 0.184000003E+01 0.999999978E-02 0.000000000E+00 0.186000001E+01 0.999999978E-02 0.000000000E+00 0.188000000E+01 0.999999978E-02 0.000000000E+00 0.189999998E+01 0.999999978E-02 0.000000000E+00 0.191999996E+01 0.999999978E-02 0.000000000E+00 0.194000006E+01 0.999999978E-02 0.000000000E+00 0.196000004E+01 0.999999978E-02 0.000000000E+00 0.198000002E+01 0.999999978E-02 0.000000000E+00 0.200000000E+01 0.999999978E-02 0.000000000E+00
[...]
<CellData Scalars="Temperature, U, V">
<DataArray type="Float32" Name="Temp, K"/>
0.000000000E+00 0.000000000E+00 0.000000000E+00 0.000000000E+00 0.000000000E+00 0.000000000E+00 0.000000000E+00 0.000000000E+00 0.000000000E+00 0.000000000E+00 0.000000000E+00 0.000000000E+00 0.000000000E+00 0.000000000E+00 0.000000000E+00 0.000000000E+00 0.000000000E+00 0.000000000E+00 0.000000000E+00 0.000000000E+00 0.000000000E+00 0.000000000E+00 0.000000000E+00 0.000000000E+00 0.000000000E+00 0.000000000E+00 0.000000000E+00 0.000000000E+00 0.000000000E+00 0.000000000E+00 0.000000000E+00 0.000000000E+00 0.000000000E+00 0.000000000E+00 0.000000000E+00 0.000000000E+00 0.000000000E+00 0.238220739E-43 0.246628530E-42 0.278826086E-36 0.274440009E-30 0.194432396E-24 0.778510533E-19 0.659565324E-17 0.697775388E-12 0.285997354E-10 0.577817072E-09 0.679160950E-08 0.462023557E-07 0.628615879E-07 0.127045316E-07 0.145978418E-08 0.102638655E-09 0.428058283E-11 0.853125418E-13 0.871024080E-18 0.909476359E-20 0.232061400E-25 0.334920146E-31 0.349646332E-37 0.714662217E-43 0.154142831E-43 0.000000000E+00 0.000000000E+00 0.000000000E+00 0.000000000E+00 0.000000000E+00 0.000000000E+00 0.000000000E+00 0.000000000E+00 0.000000000E+00 0.000000000E+00 0.000000000E+00 0.000000000E+00 0.000000000E+00 0.000000000E+00 0.000000000E+00 0.000000000E+00 0.000000000E+00 0.000000000E+00 0.000000000E+00 0.000000000E+00 0.000000000E+00 0.000000000E+00 0.000000000E+00 0.000000000E+00 0.000000000E+00 0.000000000E+00 0.000000000E+00 0.000000000E+00 0.000000000E+00 0.000000000E+00 0.000000000E+00 0.000000000E+00 0.000000000E+00 0.000000000E+00 0.000000000E+00 0.000000000E+00 0.000000000E+00 0.000000000E+00
0.000000000E+00 0.000000000E+00 0.000000000E+00 0.000000000E+00 0.000000000E+00 0.000000000E+00 0.000000000E+00 0.000000000E+00 0.000000000E+00 0.000000000E+00 0.000000000E+00 0.000000000E+00 0.000000000E+00 0.000000000E+00 0.000000000E+00 0.000000000E+00 0.000000000E+00 0.000000000E+00 0.000000000E+00 0.000000000E+00 0.000000000E+00 0.000000000E+00 0.000000000E+00 0.000000000E+00 0.000000000E+00 0.000000000E+00 0.000000000E+00 0.000000000E+00 0.000000000E+00 0.000000000E+00 0.000000000E+00 0.000000000E+00 0.000000000E+00 0.000000000E+00 0.000000000E+00 0.000000000E+00 0.126116862E-43 0.532493416E-43 0.126959042E-37 0.129755239E-31 0.991513032E-26 0.517246458E-20 0.152078656E-14 0.114963567E-12 0.537563310E-11 0.142594381E-09 0.238868880E-08 0.256041144E-07 0.167191786E-06 0.226529878E-06 0.461812171E-07 0.557200996E-08 0.434010661E-09 0.222441163E-10 0.727260103E-12 0.140000968E-13 0.161860307E-15 0.559486609E-21 0.109392147E-26 0.147289387E-32 0.149527655E-38 0.560519386E-43 0.980908925E-44 0.000000000E+00 0.000000000E+00 0.000000000E+00 0.000000000E+00 0.000000000E+00 0.000000000E+00 0.000000000E+00 0.000000000E+00 0.000000000E+00 0.000000000E+00 0.000000000E+00 0.000000000E+00 0.000000000E+00 0.000000000E+00 0.000000000E+00 0.000000000E+00 0.000000000E+00 0.000000000E+00 0.000000000E+00 0.000000000E+00 0.000000000E+00 0.000000000E+00 0.000000000E+00 0.000000000E+00 0.000000000E+00 0.000000000E+00 0.000000000E+00 0.000000000E+00 0.000000000E+00 0.000000000E+00 0.000000000E+00 0.000000000E+00 0.000000000E+00 0.000000000E+00 0.000000000E+00 0.000000000E+00 0.000000000E+00
0.000000000E+00 0.000000000E+00 0.000000000E+00 0.000000000E+00 0.000000000E+00 0.000000000E+00 0.000000000E+00 0.000000000E+00 0.000000000E+00 0.000000000E+00 0.000000000E+00 0.000000000E+00 0.000000000E+00 0.000000000E+00 0.000000000E+00 0.000000000E+00 0.000000000E+00 0.000000000E+00 0.000000000E+00 0.000000000E+00 0.000000000E+00 0.000000000E+00 0.000000000E+00 0.000000000E+00 0.000000000E+00 0.000000000E+00 0.000000000E+00 0.000000000E+00 0.000000000E+00 0.000000000E+00 0.000000000E+00 0.000000000E+00 0.000000000E+00 0.000000000E+00 0.000000000E+00 0.420389539E-44 0.546506401E-43 0.480230589E-39 0.493355346E-33 0.381081808E-27 0.192309206E-21 0.459525366E-16 0.913121253E-14 0.556406050E-12 0.200932587E-10 0.460109256E-09 0.704137504E-08 0.714781194E-07 0.453366596E-06 0.609335018E-06 0.125212239E-06 0.155784310E-07 0.128390043E-08 0.722526622E-10 0.275330952E-11 0.676082522E-13 0.977928125E-15 0.442519294E-17 0.189721284E-22 0.388956177E-28 0.525194346E-34 0.537706247E-40 0.280259693E-43 0.000000000E+00 0.000000000E+00 0.000000000E+00 0.000000000E+00 0.000000000E+00 0.000000000E+00 0.000000000E+00 0.000000000E+00 0.000000000E+00 0.000000000E+00 0.000000000E+00 0.000000000E+00 0.000000000E+00 0.000000000E+00 0.000000000E+00 0.000000000E+00 0.000000000E+00 0.000000000E+00 0.000000000E+00 0.000000000E+00 0.000000000E+00 0.000000000E+00 0.000000000E+00 0.000000000E+00 0.000000000E+00 0.000000000E+00 0.000000000E+00 0.000000000E+00 0.000000000E+00 0.000000000E+00 0.000000000E+00 0.000000000E+00 0.000000000E+00 0.000000000E+00 0.000000000E+00 0.000000000E+00 0.000000000E+00
0.000000000E+00 0.000000000E+00 0.000000000E+00 0.000000000E+00 0.000000000E+00 0.000000000E+00 0.000000000E+00 0.000000000E+00 0.000000000E+00 0.000000000E+00 0.000000000E+00 0.000000000E+00 0.000000000E+00 0.000000000E+00 0.000000000E+00 0.000000000E+00 0.000000000E+00 0.700649232E-43 0.700649232E-43 0.000000000E+00 0.000000000E+00 0.000000000E+00 0.000000000E+00 0.000000000E+00 0.000000000E+00 0.000000000E+00 0.000000000E+00 0.000000000E+00 0.000000000E+00 0.000000000E+00 0.000000000E+00 0.000000000E+00 0.000000000E+00 0.000000000E+00 0.000000000E+00 0.966895940E-43 0.157590025E-40 0.157239015E-34 0.121431463E-28 0.641486029E-23 0.170803718E-17 0.363885248E-15 0.365871884E-13 0.183731654E-11 0.579356806E-10 0.121886956E-08 0.176183725E-07 0.172160597E-06 0.106668415E-05 0.142072997E-05 0.294348069E-06 0.374573510E-07 0.320550808E-08 0.191068786E-09 0.794342630E-11 0.222934274E-12 0.393884042E-14 0.352778403E-16 0.150255575E-18 0.586820020E-24 0.116483309E-29 0.159429524E-35 0.172780101E-41 0.742688186E-43 0.000000000E+00 0.000000000E+00 0.000000000E+00 0.000000000E+00 0.000000000E+00 0.000000000E+00 0.000000000E+00 0.000000000E+00 0.000000000E+00 0.000000000E+00 0.000000000E+00 0.000000000E+00 0.000000000E+00 0.000000000E+00 0.000000000E+00 0.000000000E+00 0.700649232E-43 0.700649232E-43 0.000000000E+00 0.000000000E+00 0.000000000E+00 0.000000000E+00 0.000000000E+00 0.000000000E+00 0.000000000E+00 0.000000000E+00 0.000000000E+00 0.000000000E+00 0.000000000E+00 0.000000000E+00 0.000000000E+00 0.000000000E+00 0.000000000E+00 0.000000000E+00 0.000000000E+00 0.000000000E+00
0.000000000E+00 0.000000000E+00 0.000000000E+00 0.000000000E+00 0.000000000E+00 0.000000000E+00 0.000000000E+00 0.000000000E+00 0.000000000E+00 0.000000000E+00 0.000000000E+00 0.000000000E+00 0.000000000E+00 0.000000000E+00 0.000000000E+00 0.118830110E-41 0.908461794E-41 0.195691331E-40 0.123720641E-40 0.314591505E-41 0.348923318E-42 0.000000000E+00 0.000000000E+00 0.000000000E+00 0.000000000E+00 0.000000000E+00 0.000000000E+00 0.000000000E+00 0.000000000E+00 0.000000000E+00 0.000000000E+00 0.000000000E+00 0.000000000E+00 0.000000000E+00 0.882818033E-43 0.508671343E-42 0.445372695E-36 0.320664914E-30 0.161774935E-24 0.428996577E-19 0.133478521E-16 0.163091313E-14 0.116989995E-12 0.504991405E-11 0.144684237E-09 0.286206059E-08 0.396193904E-07 0.375357700E-06 0.227716396E-05 0.300603142E-05 0.628467831E-06 0.815317307E-07 0.718631599E-08 0.447066301E-09 0.197928011E-10 0.611950161E-12 0.126379891E-13 0.158941127E-15 0.118326119E-17 0.350041348E-20 0.139402815E-25 0.294271610E-31 0.439077312E-37 0.812753109E-43 0.868805048E-43 0.000000000E+00 0.000000000E+00 0.000000000E+00 0.000000000E+00 0.000000000E+00 0.000000000E+00 0.000000000E+00 0.000000000E+00 0.000000000E+00 0.000000000E+00 0.000000000E+00 0.000000000E+00 0.000000000E+00 0.348923318E-42 0.300578521E-41 0.115326864E-40 0.179618437E-40 0.803784799E-41 0.104817125E-41 0.000000000E+00 0.000000000E+00 0.000000000E+00 0.000000000E+00 0.000000000E+00 0.000000000E+00 0.000000000E+00 0.000000000E+00 0.000000000E+00 0.000000000E+00 0.000000000E+00 0.000000000E+00 0.000000000E+00 0.000000000E+00 0.000000000E+00 0.000000000E+00
0.000000000E+00 0.000000000E+00 0.000000000E+00 0.000000000E+00 0.000000000E+00 0.000000000E+00 0.000000000E+00 0.000000000E+00 0.000000000E+00 0.000000000E+00 0.000000000E+00 0.000000000E+00 0.000000000E+00 0.000000000E+00 0.222245936E-40 0.343718895E-39 0.197594154E-38 0.348046946E-38 0.200829892E-38 0.529837956E-39 0.795348982E-40 0.754879483E-41 0.489053164E-42 0.000000000E+00 0.000000000E+00 0.000000000E+00 0.000000000E+00 0.000000000E+00 0.000000000E+00 0.000000000E+00 0.000000000E+00 0.000000000E+00 0.000000000E+00 0.238220739E-43 0.476441478E-43 0.124288896E-37 0.801934368E-32 0.364280019E-26 0.871506467E-21 0.363012658E-18 0.610801811E-16 0.552499940E-14 0.321601225E-12 0.123461580E-10 0.328058886E-09 0.617072349E-08 0.823403496E-07 0.758784836E-06 0.451081496E-05 0.590445279E-05 0.124711437E-05 0.164756457E-06 0.149026924E-07 0.960870050E-09 0.447644942E-10 0.149438914E-11 0.348197389E-13 0.540745728E-15 0.545137046E-17 0.298948954E-19 0.674302272E-22 0.302860308E-27 0.723070361E-33 0.122685642E-38 0.364337601E-43 0.308285662E-43 0.000000000E+00 0.000000000E+00 0.000000000E+00 0.000000000E+00 0.000000000E+00 0.000000000E+00 0.000000000E+00 0.000000000E+00 0.000000000E+00 0.000000000E+00 0.348923318E-42 0.698827544E-41 0.740137823E-40 0.495244101E-39 0.187977042E-38 0.320866660E-38 0.176396151E-38 0.294658035E-39 0.180319086E-40 0.000000000E+00 0.000000000E+00 0.000000000E+00 0.000000000E+00 0.000000000E+00 0.000000000E+00 0.000000000E+00 0.000000000E+00 0.000000000E+00 0.000000000E+00 0.000000000E+00 0.000000000E+00 0.000000000E+00 0.000000000E+00 0.000000000E+00
0.000000000E+00 0.000000000E+00 0.000000000E+00 0.000000000E+00 0.000000000E+00 0.000000000E+00 0.000000000E+00 0.000000000E+00 0.000000000E+00 0.000000000E+00 0.000000000E+00 0.000000000E+00 0.000000000E+00 0.169133922E-39 0.477965810E-38 0.675101880E-37 0.311567884E-36 0.443714500E-36 0.239017708E-36 0.650977013E-37 0.106222151E-37 0.113320344E-38 0.824706185E-40 0.419408630E-41 0.140129846E-42 0.000000000E+00 0.000000000E+00 0.000000000E+00 0.000000000E+00 0.000000000E+00 0.000000000E+00 0.000000000E+00 0.364337601E-43 0.574532370E-43 0.372532394E-39 0.205945439E-33 0.830880423E-28 0.178172140E-22 0.835353949E-20 0.179190544E-17 0.213989877E-15 0.157915368E-13 0.793535864E-12 0.277453702E-10 0.692402913E-09 0.124632367E-07 0.160845644E-06 0.144379965E-05 0.841119072E-05 0.109228113E-04 0.233359037E-05 0.313912466E-06 0.290922042E-07 0.193696614E-08 0.943019760E-10 0.335574537E-11 0.860645851E-13 0.155140903E-14 0.192192388E-16 0.148922237E-18 0.654279720E-21 0.134684717E-23 0.688374909E-29 0.188846453E-34 0.382176130E-40 0.784727140E-43 0.560519386E-43 0.000000000E+00 0.000000000E+00 0.000000000E+00 0.000000000E+00 0.000000000E+00 0.000000000E+00 0.000000000E+00 0.700649232E-43 0.384516299E-41 0.760400599E-40 0.104723799E-38 0.986202050E-38 0.607449208E-37 0.223346819E-36 0.409736398E-36 0.278946934E-36 0.580510982E-37 0.393209814E-38 0.130345981E-39 0.000000000E+00 0.000000000E+00 0.000000000E+00 0.000000000E+00 0.000000000E+00 0.000000000E+00 0.000000000E+00 0.000000000E+00 0.000000000E+00 0.000000000E+00 0.000000000E+00 0.000000000E+00 0.000000000E+00 0.000000000E+00
0.000000000E+00 0.000000000E+00 0.000000000E+00 0.000000000E+00 0.000000000E+00 0.000000000E+00 0.000000000E+00 0.000000000E+00 0.000000000E+00 0.000000000E+00 0.000000000E+00 0.000000000E+00 0.597421179E-39 0.281926902E-37 0.947811287E-36 0.107083726E-34 0.359796264E-34 0.425044982E-34 0.217796058E-34 0.607987073E-35 0.106100912E-35 0.124928236E-36 0.103344767E-37 0.611053011E-39 0.258595619E-40 0.908041405E-42 0.000000000E+00 0.000000000E+00 0.000000000E+00 0.000000000E+00 0.000000000E+00 0.406376555E-43 0.630584309E-43 0.135659704E-40 0.604881814E-35 0.195165427E-29 0.366390441E-24 0.190887161E-21 0.458867265E-19 0.674281239E-17 0.635901885E-15 0.402457202E-13 0.180660706E-11 0.584628249E-10 0.138156908E-08 0.238906157E-07 0.298742123E-06 0.261358923E-05 0.149170601E-04 0.192275747E-04 0.416001467E-05 0.570003635E-06 0.540903109E-07 0.371138031E-08 0.188009747E-09 0.707010362E-11 0.196273607E-12 0.396832776E-14 0.574656003E-16 0.565530202E-18 0.363878165E-20 0.146605539E-22 0.281092403E-25 0.167679450E-30 0.591979725E-36 0.155123740E-41 0.742688186E-43 0.448415509E-43 0.000000000E+00 0.000000000E+00 0.000000000E+00 0.000000000E+00 0.000000000E+00 0.839377780E-42 0.238332843E-40 0.561639023E-39 0.950306248E-38 0.115231441E-36 0.983429379E-36 0.566286978E-35 0.203119828E-34 0.392644816E-34 0.323123997E-34 0.922280642E-35 0.779197818E-36 0.221247469E-37 0.435555793E-39 0.000000000E+00 0.000000000E+00 0.000000000E+00 0.000000000E+00 0.000000000E+00 0.000000000E+00 0.000000000E+00 0.000000000E+00 0.000000000E+00 0.000000000E+00 0.000000000E+00 0.000000000E+00 0.000000000E+00
0.000000000E+00 0.000000000E+00 0.000000000E+00 0.000000000E+00 0.000000000E+00 0.000000000E+00 0.000000000E+00 0.000000000E+00 0.000000000E+00 0.000000000E+00 0.000000000E+00 0.107540268E-38 0.791245196E-37 0.630456564E-35 0.164863117E-33 0.120631453E-32 0.305284203E-32 0.313701569E-32 0.155796238E-32 0.445856329E-33 0.824189427E-34 0.105392302E-34 0.969667686E-36 0.654447637E-37 0.325437555E-38 0.141737136E-39 0.531092118E-41 0.140129846E-42 0.000000000E+00 0.000000000E+00 0.294272678E-43 0.196181785E-43 0.599755743E-42 0.235591656E-36 0.629938665E-31 0.781645062E-26 0.441033712E-23 0.116143176E-20 0.189839308E-18 0.214382318E-16 0.168892504E-14 0.944416461E-13 0.386615089E-11 0.117059543E-09 0.263406164E-08 0.438676082E-07 0.532028821E-06 0.453711891E-05 0.253590588E-04 0.324582761E-04 0.711982011E-05 0.994241645E-06 0.965950733E-07 0.682275170E-08 0.358616220E-09 0.141668777E-10 0.420887121E-12 0.934775566E-14 0.153581777E-15 0.181476602E-17 0.152437949E-19 0.906397772E-22 0.344929973E-24 0.636905033E-27 0.594687404E-32 0.256405025E-37 0.742688186E-43 0.742688186E-43 0.238220739E-43 0.000000000E+00 0.000000000E+00 0.140129846E-42 0.489333424E-41 0.131183957E-39 0.299277415E-38 0.600420967E-37 0.890232314E-36 0.970665823E-35 0.762649657E-34 0.414426962E-33 0.144989055E-32 0.289630035E-32 0.274935731E-32 0.104332902E-32 0.135614086E-33 0.492106569E-35 0.588367054E-37 0.736225398E-39 0.000000000E+00 0.000000000E+00 0.000000000E+00 0.000000000E+00 0.000000000E+00 0.000000000E+00 0.000000000E+00 0.000000000E+00 0.000000000E+00 0.000000000E+00 0.000000000E+00 0.000000000E+00
0.000000000E+00 0.000000000E+00 0.000000000E+00 0.000000000E+00 0.000000000E+00 0.000000000E+00 0.000000000E+00 0.000000000E+00 0.000000000E+00 0.000000000E+00 0.105897807E-38 0.115480468E-36 0.218597524E-34 0.126084929E-32 0.186867485E-31 0.948397247E-31 0.194233655E-30 0.181409635E-30 0.888311677E-31 0.261738658E-31 0.510847217E-32 0.702632784E-33 0.707821111E-34 0.533672606E-35 0.303649382E-36 0.154760958E-37 0.690447779E-39 0.263486150E-40 0.839377780E-42 0.504467447E-43 0.714662217E-43 0.686636248E-43 0.773369756E-38 0.234005991E-32 0.382119523E-27 0.119635329E-24 0.303716182E-22 0.529734461E-20 0.658256580E-18 0.607303300E-16 0.413500563E-14 0.208273774E-12 0.787927362E-11 0.224876603E-09 0.483636642E-08 0.776952760E-07 0.914385680E-06 0.760033527E-05 0.415786308E-04 0.528657583E-04 0.117695035E-04 0.167612177E-05 0.166747554E-06 0.121173045E-07 0.659642896E-09 0.272630581E-10 0.860051342E-12 0.207015987E-13 0.378471288E-15 0.518977624E-17 0.535353070E-19 0.420252483E-21 0.242610543E-23 0.100459526E-25 0.347777117E-28 0.245136031E-33 0.939859288E-39 0.770714155E-43 0.210194770E-43 0.840779079E-44 0.839377780E-42 0.248814555E-40 0.644179707E-39 0.142949497E-37 0.278809338E-36 0.488951804E-35 0.648991923E-34 0.646191974E-33 0.471870065E-32 0.242777596E-31 0.824951297E-31 0.167328659E-30 0.175298111E-30 0.824315531E-31 0.154542639E-31 0.984602609E-33 0.160922335E-34 0.807552723E-37 0.674999865E-39 0.000000000E+00 0.000000000E+00 0.000000000E+00 0.000000000E+00 0.000000000E+00 0.000000000E+00 0.000000000E+00 0.000000000E+00 0.000000000E+00 0.000000000E+00 0.000000000E+00
0.000000000E+00 0.000000000E+00 0.000000000E+00 0.000000000E+00 0.000000000E+00 0.000000000E+00 0.000000000E+00 0.000000000E+00 0.000000000E+00 0.603222555E-39 0.939305607E-37 0.421319331E-34 0.514653100E-32 0.146185430E-30 0.139488091E-29 0.541041569E-29 0.951837084E-29 0.835056968E-29 0.408676842E-29 0.124598442E-29 0.256792289E-30 0.378268058E-31 0.413311161E-32 0.342859950E-33 0.218517656E-34 0.126949829E-35 0.659643091E-37 0.299955223E-38 0.116715550E-39 0.385917597E-41 0.106498683E-42 0.315292154E-42 0.127813655E-36 0.349772164E-31 0.529521804E-26 0.981524207E-24 0.156809354E-21 0.201996779E-19 0.202290741E-17 0.158221678E-15 0.952084684E-14 0.437690330E-12 0.154390199E-10 0.417465812E-09 0.860313243E-08 0.133451977E-06 0.152437258E-05 0.123464661E-04 0.660728474E-04 0.834789898E-04 0.188818158E-04 0.274423223E-05 0.279646088E-06 0.209027178E-07 0.117716059E-08 0.507578146E-10 0.169104520E-11 0.437130800E-13 0.877491776E-15 0.136541446E-16 0.166689043E-18 0.162990558E-20 0.128049267E-22 0.845473755E-25 0.490097411E-27 0.373624782E-32 0.159261074E-37 0.798740125E-43 0.217201262E-42 0.373446041E-41 0.112244007E-39 0.283223439E-38 0.614294046E-37 0.117095576E-35 0.200404252E-34 0.313775809E-33 0.378493385E-32 0.347373686E-31 0.236786175E-30 0.115345891E-29 0.378803600E-29 0.769441513E-29 0.860334197E-29 0.472375433E-29 0.116108204E-29 0.114872881E-30 0.379177192E-32 0.290508592E-34 0.612453300E-37 0.354552334E-39 0.000000000E+00 0.000000000E+00 0.000000000E+00 0.000000000E+00 0.000000000E+00 0.000000000E+00 0.000000000E+00 0.000000000E+00 0.000000000E+00 0.000000000E+00
0.000000000E+00 0.000000000E+00 0.000000000E+00 0.000000000E+00 0.000000000E+00 0.000000000E+00 0.000000000E+00 0.000000000E+00 0.207644406E-39 0.449527215E-37 0.473151572E-34 0.118495980E-31 0.620679073E-30 0.105807379E-28 0.734691417E-28 0.233819547E-27 0.368734984E-27 0.310905254E-27 0.153547774E-27 0.486239954E-28 0.105908881E-28 0.166811620E-29 0.196738940E-30 0.177905016E-31 0.125137168E-32 0.811936390E-34 0.479086340E-35 0.252470666E-36 0.116418083E-37 0.459809466E-39 0.153175935E-40 0.177226421E-38 0.338479397E-33 0.352820345E-28 0.424269486E-25 0.582331953E-23 0.674631069E-21 0.681659574E-19 0.569834053E-17 0.387068487E-15 0.209027386E-13 0.885259476E-12 0.292945390E-10 0.753108298E-09 0.148968100E-07 0.223259548E-06 0.247516300E-05 0.195276534E-04 0.102169433E-03 0.128304848E-03 0.295131013E-04 0.438064080E-05 0.457457503E-06 0.351723592E-07 0.204770578E-08 0.919413226E-10 0.322274325E-11 0.889004853E-13 0.194099082E-14 0.337471426E-16 0.475954244E-18 0.559789431E-20 0.563402060E-22 0.513713025E-24 0.400501176E-26 0.365433019E-29 0.417909880E-34 0.262852763E-39 0.153512247E-40 0.451148041E-39 0.111679550E-37 0.237953887E-36 0.445575603E-35 0.748130121E-34 0.114651887E-32 0.162643323E-31 0.179948883E-30 0.152975054E-29 0.975055449E-29 0.449378678E-28 0.142094774E-27 0.286202699E-27 0.333628892E-27 0.204912181E-27 0.615294413E-28 0.837574670E-29 0.460322553E-30 0.818045767E-32 0.303219428E-34 0.270607437E-37 0.111264499E-39 0.000000000E+00 0.000000000E+00 0.000000000E+00 0.000000000E+00 0.000000000E+00 0.000000000E+00 0.000000000E+00 0.000000000E+00 0.000000000E+00