<?xml version="1.0"?>
<VTKFile type="StructuredGrid">
<StructuredGrid WholeExtent="     0   100     0   100     0     0">
<Piece Extent="     0   100     0   100     0     0">
<Points>
<DataArray type="Float32" NumberOfComponents="3"/>
0.000000000E+00 0.000000000E+00 0.000000000E+00 0.199999996E-01 0.000000000E+00 0.000000000E+00 0.399999991E-01 0.000000000E+00 0.000000000E+00 0.599999987E-01 0.000000000E+00 0.000000000E+00 0.799999982E-01 0.000000000E+00 0.000000000E+00 0.100000001E+00 0.000000000E+00 0.000000000E+00 0.119999997E+00 0.000000000E+00 0.000000000E+00 0.140000001E+00 0.000000000E+00 0.000000000E+00 0.159999996E+00 0.000000000E+00 0.000000000E+00 0.180000007E+00 0.000000000E+00 0.000000000E+00 0.200000003E+00 0.000000000E+00 0.000000000E+00 0.219999999E+00 0.000000000E+00 0.000000000E+00 0.239999995E+00 0.000000000E+00 0.000000000E+00 0.259999990E+00 0.000000000E+00 0.000000000E+00 0.280000001E+00 0.000000000E+00 0.000000000E+00 0.300000012E+00 0.000000000E+00 0.000000000E+00 0.319999993E+00 0.000000000E+00 0.000000000E+00 0.340000004E+00 0.000000000E+00 0.000000000E+00 0.360000014E+00 0.000000000E+00 0.000000000E+00 0.379999995E+00 0.000000000E+00 0.000000000E+00 0.400000006E+00 0.000000000E+00 0.000000000E+00 0.419999987E+00 0.000000000E+00 0.000000000E+00 0.439999998E+00 0.000000000E+00 0.000000000E+00 0.460000008E+00 0.000000000E+00 0.000000000E+00 0.479999989E+00 0.000000000E+00 0.000000000E+00 0.500000000E+00 0.000000000E+00 0.000000000E+00 0.519999981E+00 0.000000000E+00 0.000000000E+00 0.540000021E+00 0.000000000E+00 0.000000000E+00 0.560000002E+00 0.000000000E+00 0.000000000E+00 0.579999983E+00 0.000000000E+00 0.000000000E+00 0.600000024E+00 0.000000000E+00 0.000000000E+00 0.620000005E+00 0.000000000E+00 0.000000000E+00 0.639999986E+00 0.000000000E+00 0.000000000E+00 0.660000026E+00 0.000000000E+00 0.000000000E+00 0.680000007E+00 0.000000000E+00 0.000000000E+00 0.699999988E+00 0.000000000E+00 0.000000000E+00 0.720000029E+00 0.000000000E+00 0.000000000E+00 0.740000010E+00 0.000000000E+00 0.000000000E+00 0.759999990E+00 0.000000000E+00 0.000000000E+00 0.779999971E+00 0.000000000E+00 0.000000000E+00 0.800000012E+00 0.000000000E+00 0.000000000E+00 0.819999993E+00 0.000000000E+00 0.000000000E+00 0.839999974E+00 0.000000000E+00 0.000000000E+00 0.860000014E+00 0.000000000E+00 0.000000000E+00 0.879999995E+00 0.000000000E+00 0.000000000E+00 0.899999976E+00 0.000000000E+00 0.000000000E+00 0.920000017E+00 0.000000000E+00 0.000000000E+00 0.939999998E+00 0.000000000E+00 0.000000000E+00 0.959999979E+00 0.000000000E+00 0.000000000E+00 0.980000019E+00 0.000000000E+00 0.000000000E+00 0.100000000E+01 0.000000000E+00 0.000000000E+00 0.101999998E+01 0.000000000E+00 0.000000000E+00 0.103999996E+01 0.000000000E+00 0.000000000E+00 0.105999994E+01 0.000000000E+00 0.000000000E+00 0.108000004E+01 0.000000000E+00 0.000000000E+00 0.110000002E+01 0.000000000E+00 0.000000000E+00 0.112000000E+01 0.000000000E+00 0.000000000E+00 0.113999999E+01 0.000000000E+00 0.000000000E+00 0.115999997E+01 0.000000000E+00 0.000000000E+00 0.117999995E+01 0.000000000E+00 0.000000000E+00 0.120000005E+01 0.000000000E+00 0.000000000E+00 0.122000003E+01 0.000000000E+00 0.000000000E+00 0.124000001E+01 0.000000000E+00 0.000000000E+00 0.125999999E+01 0.000000000E+00 0.000000000E+00 0.127999997E+01 0.000000000E+00 0.000000000E+00 0.129999995E+01 0.000000000E+00 0.000000000E+00 0.132000005E+01 0.000000000E+00 0.000000000E+00 0.134000003E+01 0.000000000E+00 0.000000000E+00 0.136000001E+01 0.000000000E+00 0.000000000E+00 0.138000000E+01 0.000000000E+00 0.000000000E+00 0.139999998E+01 0.000000000E+00 0.000000000E+00 0.141999996E+01 0.000000000E+00 0.000000000E+00 0.144000006E+01 0.000000000E+00 0.000000000E+00 0.146000004E+01 0.000000000E+00 0.000000000E+00 0.148000002E+01 0.000000000E+00 0.000000000E+00 0.150000000E+01 0.000000000E+00 0.000000000E+00 0.151999998E+01 0.000000000E+00 0.000000000E+00 0.153999996E+01 0.000000000E+00 0.000000000E+00 0.155999994E+01 0.000000000E+00 0.000000000E+00 0.158000004E+01 0.000000000E+00 0.000000000E+00 0.160000002E+01 0.000000000E+00 0.000000000E+00 0.162000000E+01 0.000000000E+00 0.000000000E+00 0.163999999E+01 0.000000000E+00 0.000000000E+00 0.165999997E+01 0.000000000E+00 0.000000000E+00 0.167999995E+01 0.000000000E+00 0.000000000E+00 0.170000005E+01 0.000000000E+00 0.000000000E+00 0.172000003E+01 0.000000000E+00 0.000000000E+00 0.174000001E+01 0.000000000E+00 0.000000000E+00 0.175999999E+01 0.000000000E+00 0.000000000E+00 0.177999997E+01 0.000000000E+00 0.000000000E+00 0.179999995E+01 0.000000000E+00 0.000000000E+00 0.182000005E+01 0.000000000E+00 0.000000000E+00 0.184000003E+01 0.000000000E+00 0.000000000E+00 0.186000001E+01 0.000000000E+00 0.000000000E+00 0.188000000E+01 0.000000000E+00 0.000000000E+00 0.189999998E+01 0.000000000E+00 0.000000000E+00 0.191999996E+01 0.000000000E+00 0.000000000E+00 0.194000006E+01 0.000000000E+00 0.000000000E+00 0.196000004E+01 0.000000000E+00 0.000000000E+00 0.198000002E+01 0.000000000E+00 0.000000000E+00 0.200000000E+01 0.000000000E+00 0.000000000E+00
0.000000000E+00 0.999999978E-02 0.000000000E+00 0.199999996E-01 0.999999978E-02 0.000000000E+00 0.399999991E-01 0.999999978E-02 0.000000000E+00 0.599999987E-01 0.999999978E-02 0.000000000E+00 0.799999982E-01 0.999999978E-02 0.000000000E+00 0.100000001E+00 0.999999978E-02 0.000000000E+00 0.119999997E+00 0.999999978E-02 0.000000000E+00 0.140000001E+00 0.999999978E-02 0.000000000E+00 0.159999996E+00 0.999999978E-02 0.000000000E+00 0.180000007E+00 0.999999978E-02 0.000000000E+00 0.200000003E+00 0.999999978E-02 0.000000000E+00 0.219999999E+00 0.999999978E-02 0.000000000E+00 0.239999995E+00 0.999999978E-02 0.000000000E+00 0.259999990E+00 0.999999978E-02 0.000000000E+00 0.280000001E+00 0.999999978E-02 0.000000000E+00 0.300000012E+00 0.999999978E-02 0.000000000E+00 0.319999993E+00 0.999999978E-02 0.000000000E+00 0.340000004E+00 0.999999978E-02 0.000000000E+00 0.360000014E+00 0.999999978E-02 0.000000000E+00 0.379999995E+00 0.999999978E-02 0.000000000E+00 0.400000006E+00 0.999999978E-02 0.000000000E+00 0.419999987E+00 0.999999978E-02 0.000000000E+00 0.439999998E+00 0.999999978E-02 0.000000000E+00 0.460000008E+00 0.999999978E-02 0.000000000E+00 0.479999989E+00 0.999999978E-02 0.000000000E+00 0.500000000E+00 0.999999978E-02 0.000000000E+00 0.519999981E+00 0.999999978E-02 0.000000000E+00 0.540000021E+00 0.999999978E-02 0.000000000E+00 0.560000002E+00 0.999999978E-02 0.000000000E+00 0.579999983E+00 0.999999978E-02 0.000000000E+00 0.600000024E+00 0.999999978E-02 0.000000000E+00 0.620000005E+00 0.999999978E-02 0.000000000E+00 0.639999986E+00 0.999999978E-02 0.000000000E+00 0.660000026E+00 0.999999978E-02 0.000000000E+00 0.680000007E+00 0.999999978E-02 0.000000000E+00 0.699999988E+00 0.999999978E-02 0.000000000E+00 0.720000029E+00 0.999999978E-02 0.000000000E+00 0.740000010E+00 0.999999978E-02 0.000000000E+00 0.759999990E+00 0.999999978E-02 0.000000000E+00 0.779999971E+00 0.999999978E-02 0.000000000E+00 0.800000012E+00 0.999999978E-02 0.000000000E+00 0.819999993E+00 0.999999978E-02 0.000000000E+00 0.839999974E+00 0.999999978E-02 0.000000000E+00 0.860000014E+00 0.999999978E-02 0.000000000E+00 0.879999995E+00 0.999999978E-02 0.000000000E+00 0.899999976E+00 0.999999978E-02 0.000000000E+00 0.920000017E+00 0.999999978E-02 0.000000000E+00 0.939999998E+00 0.999999978E-02 0.000000000E+00 0.959999979E+00 0.999999978E-02 0.000000000E+00 0.980000019E+00 0.999999978E-02 0.000000000E+00 0.100000000E+01 0.999999978E-02 0.000000000E+00 0.101999998E+01 0.999999978E-02 0.000000000E+00 0.103999996E+01 0.999999978E-02 0.000000000E+00 0.105999994E+01 0.999999978E-02 0.000000000E+00 0.108000004E+01 0.999999978E-02 0.000000000E+00 0.110000002E+01 0.999999978E-02 0.000000000E+00 0.112000000E+01 0.999999978E-02 0.000000000E+00 0.113999999E+01 0.999999978E-02 0.000000000E+00 0.115999997E+01 0.999999978E-02 0.000000000E+00 0.117999995E+01 0.999999978E-02 0.000000000E+00 0.120000005E+01 0.999999978E-02 0.000000000E+00 0.122000003E+01 0.999999978E-02 0.000000000E+00 0.124000001E+01 0.999999978E-02 0.000000000E+00 0.125999999E+01 0.999999978E-02 0.000000000E+00 0.127999997E+01 0.999999978E-02 0.000000000E+00 0.129999995E+01 0.999999978E-02 0.000000000E+00 0.132000005E+01 0.999999978E-02 0.000000000E+00 0.134000003E+01 0.999999978E-02 0.000000000E+00 0.136000001E+01 0.999999978E-02 0.000000000E+00 0.138000000E+01 0.999999978E-02 0.000000000E+00 0.139999998E+01 0.999999978E-02 0.000000000E+00 0.141999996E+01 0.999999978E-02 0.000000000E+00 0.144000006E+01 0.999999978E-02 0.000000000E+00 0.146000004E+01 0.999999978E-02 0.000000000E+00 0.148000002E+01 0.999999978E-02 0.000000000E+00 0.150000000E+01 0.999999978E-02 0.000000000E+00 0.151999998E+01 0.999999978E-02 0.000000000E+00 0.153999996E+01 0.999999978E-02 0.000000000E+00 0.155999994E+01 0.999999978E-02 0.000000000E+00 0.158000004E+01 0.999999978E-02 0.000000000E+00 0.160000002E+01 0.999999978E-02 0.000000000E+00 0.162000000E+01 0.999999978E-02 0.000000000E+00 0.163999999E+01 0.999999978E-02 0.000000000E+00 0.165999997E+01 0.999999978E-02 0.000000000E+00 0.167999995E+01 0.999999978E-02 0.000000000E+00 0.170000005E+01 0.999999978E-02 0.000000000E+00 0.172000003E+01 0.999999978E-02 0.000000000E+00 0.174000001E+01 0.999999978E-02 0.000000000E+00 0.175999999E+01 0.999999978E-02 0.000000000E+00 0.177999997E+01 0.999999978E-02 0.000000000E+00 0.179999995E+01 0.999999978E-02 0.000000000E+00 0.182000005E+01 0.999999978E-02 0.000000000E+00 0.184000003E+01 0.999999978E-02 0.000000000E+00 0.186000001E+01 0.999999978E-02 0.000000000E+00 0.188000000E+01 0.999999978E-02 0.000000000E+00 0.189999998E+01 0.999999978E-02 0.000000000E+00 0.191999996E+01 0.999999978E-02 0.000000000E+00 0.194000006E+01 0.999999978E-02 0.000000000E+00 0.196000004E+01 0.999999978E-02 0.000000000E+00 0.198000002E+01 0.999999978E-02 0.000000000E+00 0.200000000E+01 0.999999978E-02 0.000000000E+00
[...]
<CellData Scalars="Temperature, U, V">
<DataArray type="Float32" Name="Temp, K"/>
0.149872251E-19 0.360391297E-18 0.447449083E-17 0.331639836E-16 0.162005546E-15 0.562265976E-15 0.147066678E-14 0.303544463E-14 0.512154448E-14 0.725598916E-14 0.880882163E-14 0.930517785E-14 0.865285321E-14 0.714561738E-14 0.527535423E-14 0.349914244E-14 0.209303324E-14 0.113203148E-14 0.554645750E-15 0.246469912E-15 0.993977877E-16 0.363849057E-16 0.120860658E-16 0.364078170E-17 0.993643266E-18 0.263192276E-18 0.674453603E-19 0.166656537E-19 0.395686168E-20 0.899293657E-21 0.194858110E-21 0.400780278E-22 0.778765931E-23 0.142223624E-23 0.242732007E-24 0.384708574E-25 0.562241736E-26 0.751699750E-27 0.911069345E-28 0.990561216E-29 0.954262364E-30 0.127203429E-30 0.240240131E-25 0.304859557E-22 0.100071996E-16 0.313551099E-14 0.452048501E-12 0.356642840E-10 0.150564849E-08 0.213109796E-08 0.686042056E-10 0.115918147E-11 0.113098008E-13 0.622105532E-16 0.155325067E-18 0.489561753E-24 0.333870597E-27 0.119237739E-30 0.126902862E-29 0.120272098E-28 0.102196909E-27 0.786827845E-27 0.553937165E-26 0.359468199E-25 0.216554127E-24 0.121882540E-23 0.644586134E-23 0.321998790E-22 0.152665272E-21 0.690008177E-21 0.298519204E-20 0.124093765E-19 0.497439634E-19 0.192934010E-18 0.726350966E-18 0.266246051E-17 0.886457037E-17 0.268266352E-16 0.738155597E-16 0.184658318E-15 0.419757421E-15 0.866118029E-15 0.161947681E-14 0.273736463E-14 0.416856508E-14 0.569329130E-14 0.693164542E-14 0.746336315E-14 0.703191760E-14 0.571727631E-14 0.393751905E-14 0.224100312E-14 0.101986928E-14 0.355260335E-15 0.894424044E-16 0.151046935E-16 0.154826590E-17 0.828030799E-19 0.168302719E-20 0.241307274E-26
0.452309028E-18 0.100620665E-16 0.116916037E-15 0.820839724E-15 0.384469525E-14 0.129417995E-13 0.331677807E-13 0.676646442E-13 0.113674952E-12 0.161348501E-12 0.197270775E-12 0.210812067E-12 0.199089877E-12 0.167547169E-12 0.126438397E-12 0.859619450E-13 0.528340087E-13 0.294287672E-13 0.148803225E-13 0.683734482E-14 0.285640304E-14 0.108501014E-14 0.374614535E-15 0.117482437E-15 0.334318015E-16 0.922535098E-17 0.246113674E-17 0.632754911E-18 0.156246391E-18 0.369218109E-19 0.831682850E-20 0.177826888E-20 0.359254400E-21 0.682309337E-22 0.121148864E-22 0.199863215E-23 0.304240207E-24 0.424006235E-25 0.536183018E-26 0.608882511E-27 0.613374562E-28 0.119294195E-27 0.530972683E-22 0.319176364E-19 0.287597199E-16 0.769623114E-14 0.105292966E-11 0.812458503E-10 0.340261397E-08 0.480455586E-08 0.154520993E-09 0.263524315E-11 0.263260076E-13 0.153141691E-15 0.456066858E-18 0.443217599E-21 0.626221452E-24 0.933269615E-29 0.813516841E-28 0.737736084E-27 0.600519016E-26 0.443378933E-25 0.299611023E-24 0.186765718E-23 0.108148665E-22 0.585375812E-22 0.297834498E-21 0.143170292E-20 0.653264031E-20 0.284144295E-19 0.118282356E-18 0.472963573E-18 0.182286515E-17 0.679365712E-17 0.245585457E-16 0.863606007E-16 0.276262549E-15 0.804514752E-15 0.213360400E-14 0.515297491E-14 0.113285744E-13 0.226493645E-13 0.411180218E-13 0.676273070E-13 0.100451467E-12 0.134177297E-12 0.160253904E-12 0.169846030E-12 0.158147787E-12 0.127660632E-12 0.877707398E-13 0.501972968E-13 0.231379416E-13 0.824068444E-14 0.214453263E-14 0.378840806E-15 0.411177983E-16 0.235562551E-17 0.518328562E-19 0.769555692E-25
0.881441758E-17 0.182168822E-15 0.198915650E-14 0.132790448E-13 0.598308499E-13 0.195833868E-12 0.492660383E-12 0.994548411E-12 0.166456822E-11 0.236730253E-11 0.291417931E-11 0.314873908E-11 0.301766554E-11 0.258552056E-11 0.199221737E-11 0.138657976E-11 0.874509178E-12 0.500933930E-12 0.261007009E-12 0.123815034E-12 0.534954669E-13 0.210507931E-13 0.754136980E-14 0.245775355E-14 0.727905281E-15 0.208855045E-15 0.578904602E-16 0.154539987E-16 0.396036913E-17 0.970901486E-18 0.226841100E-18 0.503033798E-19 0.105404540E-19 0.207670761E-20 0.382637323E-21 0.655344304E-22 0.103627261E-22 0.150127271E-23 0.197513576E-24 0.233581144E-25 0.245325014E-26 0.266693349E-25 0.182599148E-21 0.104647744E-18 0.583586841E-16 0.139986857E-13 0.183404008E-11 0.138750594E-09 0.576709924E-08 0.812267142E-08 0.261082239E-09 0.449089117E-11 0.458073724E-13 0.278939384E-15 0.935714774E-18 0.144800642E-20 0.214248725E-23 0.587680671E-27 0.324598737E-26 0.282504957E-25 0.220940070E-24 0.156879407E-23 0.102036153E-22 0.612637583E-22 0.341888580E-21 0.178420172E-20 0.875509771E-20 0.405965058E-19 0.178685346E-18 0.749652024E-18 0.300925122E-17 0.115990128E-16 0.430703714E-16 0.154551154E-15 0.537483592E-15 0.181658286E-14 0.559333675E-14 0.157014819E-13 0.402020810E-13 0.938902547E-13 0.199941341E-12 0.387911437E-12 0.684700885E-12 0.109722995E-11 0.159162928E-11 0.208154544E-11 0.244107273E-11 0.254859827E-11 0.234637591E-11 0.188085485E-11 0.129068533E-11 0.741236228E-12 0.345596652E-12 0.125591174E-12 0.336894717E-13 0.620424317E-14 0.710276725E-15 0.434126885E-16 0.102989570E-17 0.157800008E-23
0.123253313E-15 0.237350363E-14 0.244266142E-13 0.155470729E-12 0.675398810E-12 0.215341221E-11 0.532437852E-11 0.106443144E-10 0.177555141E-10 0.253029021E-10 0.313563966E-10 0.342438335E-10 0.332876816E-10 0.290192956E-10 0.228150311E-10 0.162433938E-10 0.105038339E-10 0.618211255E-11 0.331614532E-11 0.162245683E-11 0.724236209E-12 0.294917411E-12 0.109502488E-12 0.370426244E-13 0.114039815E-13 0.339789067E-14 0.977200524E-15 0.270471676E-15 0.718246683E-16 0.182382208E-16 0.441234434E-17 0.101300984E-17 0.219750999E-18 0.448275443E-19 0.855371477E-20 0.151771901E-20 0.248750411E-21 0.373755260E-22 0.510375059E-23 0.627016328E-24 0.684952517E-25 0.127396870E-24 0.420546116E-21 0.229917255E-18 0.101438111E-15 0.224286091E-13 0.283277937E-11 0.210522072E-09 0.868658390E-08 0.122025465E-07 0.392157445E-09 0.680014725E-11 0.706665222E-13 0.447164628E-15 0.163664777E-17 0.317193675E-20 0.491300087E-23 0.107630672E-25 0.904253876E-25 0.757228520E-24 0.570387731E-23 0.390423733E-22 0.244974910E-21 0.141982139E-20 0.765218645E-20 0.385804146E-19 0.182936305E-18 0.819747826E-18 0.348668209E-17 0.141330541E-16 0.547962091E-16 0.203907128E-15 0.730554111E-15 0.252748829E-14 0.846724797E-14 0.275386505E-13 0.817107477E-13 0.221358427E-12 0.547772494E-12 0.123835924E-11 0.255693036E-11 0.481838267E-11 0.827640127E-11 0.129330184E-10 0.183349724E-10 0.234929715E-10 0.270675878E-10 0.278512075E-10 0.253607430E-10 0.201897006E-10 0.138261017E-10 0.796940985E-11 0.375496205E-11 0.139034823E-11 0.383680202E-12 0.734812601E-13 0.884890831E-14 0.575369046E-15 0.146744471E-16 0.231365094E-22
0.132320395E-14 0.238127423E-13 0.231639252E-12 0.140934790E-11 0.591597864E-11 0.184040422E-10 0.447740907E-10 0.887030102E-10 0.147511212E-09 0.210645140E-09 0.262728311E-09 0.289887947E-09 0.285674179E-09 0.253237653E-09 0.203001574E-09 0.147728593E-09 0.978642514E-10 0.591290350E-10 0.326224325E-10 0.164455689E-10 0.757660427E-11 0.318932966E-11 0.122597364E-11 0.429976584E-12 0.137433793E-12 0.424692833E-13 0.126554236E-13 0.362663170E-14 0.996472853E-15 0.261676668E-15 0.654456499E-16 0.155292043E-16 0.348130500E-17 0.733905142E-18 0.144742933E-18 0.265522586E-19 0.450108149E-20 0.699866490E-21 0.989646390E-22 0.126001494E-22 0.142754537E-23 0.489183100E-24 0.810372751E-21 0.422868248E-18 0.161293351E-15 0.334559922E-13 0.409372709E-11 0.299299807E-09 0.122614807E-07 0.171782428E-07 0.552244750E-09 0.965050435E-11 0.102002140E-12 0.667116426E-15 0.261235673E-17 0.581980449E-20 0.944915342E-23 0.210600692E-24 0.188171902E-23 0.151995668E-22 0.110537714E-21 0.731059186E-21 0.443503831E-20 0.248654143E-19 0.129689422E-18 0.632932549E-18 0.290549444E-17 0.126046774E-16 0.518967690E-16 0.203577156E-15 0.763552398E-15 0.274718429E-14 0.951013865E-14 0.317653110E-13 0.102641352E-12 0.321631908E-12 0.920705894E-12 0.240973300E-11 0.576942877E-11 0.126385430E-10 0.253269194E-10 0.464001511E-10 0.776268980E-10 0.118383012E-09 0.164148445E-09 0.206209216E-09 0.233559977E-09 0.236962949E-09 0.213487242E-09 0.168818654E-09 0.115360839E-09 0.667112129E-10 0.317388685E-10 0.119583579E-10 0.338867758E-11 0.673348367E-12 0.850677019E-13 0.586748532E-14 0.160420126E-15 0.259504845E-21
0.113962947E-13 0.192225725E-12 0.177243300E-11 0.103344052E-10 0.420027034E-10 0.127685293E-09 0.305959452E-09 0.601017847E-09 0.996647098E-09 0.142604772E-08 0.178967452E-08 0.199424455E-08 0.199121741E-08 0.179369108E-08 0.146500834E-08 0.108885978E-08 0.738336114E-09 0.457543198E-09 0.259394839E-09 0.134605591E-09 0.639389861E-10 0.277930005E-10 0.110483359E-10 0.401281352E-11 0.133006973E-11 0.425735483E-12 0.131279495E-12 0.388966203E-13 0.110421731E-13 0.299423161E-14 0.772929476E-15 0.189239059E-15 0.437648424E-16 0.951741688E-17 0.193642940E-17 0.366534431E-18 0.641325278E-19 0.102971942E-19 0.150443969E-20 0.198046017E-21 0.232174576E-22 0.319088537E-23 0.141080228E-20 0.703041172E-18 0.242042656E-15 0.476535451E-13 0.567005123E-11 0.408287570E-09 0.166070286E-07 0.232032118E-07 0.746576911E-09 0.131454882E-10 0.141138146E-12 0.950231948E-15 0.393027093E-17 0.965781510E-20 0.167113746E-22 0.349269704E-23 0.305646303E-22 0.238717640E-21 0.167999847E-20 0.107596027E-19 0.632457385E-19 0.343723504E-18 0.173832792E-17 0.822767687E-17 0.366316206E-16 0.154117764E-15 0.615260645E-15 0.233938875E-14 0.850094209E-14 0.296151043E-13 0.991956761E-13 0.320303625E-12 0.999523598E-12 0.302123626E-11 0.835352967E-11 0.211459704E-10 0.490354493E-10 0.104191426E-09 0.202838885E-09 0.361613323E-09 0.589754690E-09 0.878470852E-09 0.119227817E-08 0.146950074E-08 0.163723579E-08 0.163873526E-08 0.146131507E-08 0.114806598E-08 0.782827803E-09 0.454028010E-09 0.217962690E-09 0.834666641E-10 0.242462560E-10 0.498766089E-11 0.659332181E-12 0.481058064E-13 0.140586590E-14 0.232646708E-20
0.812463771E-13 0.128818755E-11 0.112898840E-10 0.632346536E-10 0.249321092E-09 0.741651351E-09 0.175194170E-08 0.341398909E-08 0.564607161E-08 0.809385536E-08 0.102174766E-07 0.114928227E-07 0.116201946E-07 0.106297238E-07 0.883920137E-08 0.670446454E-08 0.464943595E-08 0.295251690E-08 0.171842540E-08 0.917023013E-09 0.448664272E-09 0.201177852E-09 0.826129373E-10 0.310382380E-10 0.106558668E-10 0.352860991E-11 0.112449286E-11 0.344012904E-12 0.100759597E-12 0.281714535E-13 0.749436286E-14 0.189021098E-14 0.450212940E-15 0.100820088E-15 0.211232597E-16 0.411770385E-17 0.742169090E-18 0.122796190E-18 0.184966713E-19 0.251190417E-20 0.304008237E-21 0.339537377E-22 0.230285265E-20 0.109561013E-17 0.348831435E-15 0.657195381E-13 0.762521470E-11 0.541234724E-09 0.218554952E-07 0.304531262E-07 0.981247861E-09 0.174077436E-10 0.189671480E-12 0.131058920E-14 0.567536931E-17 0.150318007E-19 0.314876576E-22 0.470948256E-22 0.399832017E-21 0.302653976E-20 0.206581007E-19 0.128398193E-18 0.732794393E-18 0.386813022E-17 0.190047922E-16 0.873962705E-16 0.378048089E-15 0.154509641E-14 0.599040886E-14 0.221116867E-13 0.779615698E-13 0.263351596E-12 0.854636837E-12 0.267124495E-11 0.806013502E-11 0.235288334E-10 0.629073391E-10 0.154184776E-09 0.346654788E-09 0.715176141E-09 0.135389433E-08 0.235090369E-08 0.374091957E-08 0.544723244E-08 0.724218774E-08 0.876390782E-08 0.961109947E-08 0.949572332E-08 0.838484038E-08 0.654649934E-08 0.445443638E-08 0.259050070E-08 0.125409183E-08 0.487588303E-09 0.144969245E-09 0.308080714E-10 0.425072868E-11 0.327156650E-12 0.101903391E-13 0.171994889E-19
0.490977593E-12 0.733851001E-11 0.612958573E-10 0.330548755E-09 0.126654875E-08 0.369133812E-08 0.860278071E-08 0.166367116E-07 0.274417982E-07 0.394060145E-07 0.500198105E-07 0.567655754E-07 0.580834794E-07 0.539186793E-07 0.456141329E-07 0.352791112E-07 0.249998227E-07 0.162538143E-07 0.970283942E-08 0.531957367E-08 0.267806732E-08 0.123742239E-08 0.524353394E-09 0.203556241E-09 0.723000895E-10 0.247388030E-10 0.813731461E-11 0.256704055E-11 0.774675083E-12 0.223005371E-12 0.610472705E-13 0.158370258E-13 0.387857615E-14 0.892903169E-15 0.192302750E-15 0.385357342E-16 0.714108911E-17 0.121512491E-17 0.188312125E-18 0.263247176E-19 0.328172195E-20 0.362793975E-21 0.361777175E-20 0.163298833E-17 0.488089977E-15 0.885059577E-13 0.100350370E-10 0.702532144E-09 0.281586985E-07 0.391291728E-07 0.126335886E-08 0.225827395E-10 0.249531190E-12 0.176553144E-14 0.795479743E-17 0.223939893E-19 0.972473898E-22 0.523330325E-21 0.431370327E-20 0.317176008E-19 0.210427484E-18 0.127189855E-17 0.706199244E-17 0.362756418E-16 0.173464539E-15 0.776401305E-15 0.326847928E-14 0.129976994E-13 0.490155334E-13 0.175899958E-12 0.602610681E-12 0.197649210E-11 0.622266865E-11 0.188503258E-10 0.550643107E-10 0.155417221E-09 0.402254841E-09 0.955634016E-09 0.208530881E-08 0.418131751E-08 0.770466269E-08 0.130424871E-07 0.202676560E-07 0.288740765E-07 0.376349405E-07 0.447483863E-07 0.483370144E-07 0.471680224E-07 0.412621546E-07 0.320255786E-07 0.217478231E-07 0.126798945E-07 0.618714857E-08 0.244007148E-08 0.741467054E-09 0.162467234E-09 0.233403921E-10 0.188980277E-11 0.625586348E-13 0.107372205E-18
0.256286680E-11 0.362128626E-10 0.289014118E-09 0.150382162E-08 0.560888980E-08 0.160342601E-07 0.368918869E-07 0.708229848E-07 0.116514371E-06 0.167559847E-06 0.213778605E-06 0.244643047E-06 0.253164927E-06 0.238318350E-06 0.204951306E-06 0.161502740E-06 0.116844731E-06 0.777079450E-07 0.475348081E-07 0.267486122E-07 0.138426115E-07 0.658423760E-08 0.287598811E-08 0.115233623E-08 0.422960167E-09 0.149365326E-09 0.506486728E-10 0.164550578E-10 0.510958983E-11 0.151236445E-11 0.425412445E-12 0.113344684E-12 0.284981016E-13 0.673360446E-14 0.148820523E-14 0.306027392E-15 0.581991507E-16 0.101651936E-16 0.161753587E-17 0.232279166E-18 0.297619035E-19 0.336114421E-20 0.573051786E-20 0.235692956E-17 0.667860386E-15 0.117053367E-12 0.129901758E-10 0.897325103E-09 0.356909453E-07 0.494617751E-07 0.160119373E-08 0.288432229E-10 0.323050153E-12 0.233645399E-14 0.109037790E-16 0.323630828E-19 0.597821665E-21 0.487773746E-20 0.391148864E-19 0.279970730E-18 0.180914512E-17 0.106553618E-16 0.576663141E-16 0.288783601E-15 0.134636501E-14 0.587508532E-14 0.241090293E-13 0.934298347E-13 0.343214172E-12 0.119918149E-11 0.399729338E-11 0.127468279E-10 0.389828586E-10 0.114593439E-09 0.324450689E-09 0.886432650E-09 0.222345609E-08 0.512543519E-08 0.108662039E-07 0.211971027E-07 0.380539156E-07 0.628581347E-07 0.954745758E-07 0.133188635E-06 0.170329471E-06 0.199142349E-06 0.212029562E-06 0.204477800E-06 0.177300862E-06 0.136851042E-06 0.927642176E-07 0.542198109E-07 0.266555684E-07 0.106545128E-07 0.330462901E-08 0.745226159E-09 0.111217507E-09 0.944808294E-11 0.331447001E-12 0.576770035E-18
0.117361728E-10 0.157196409E-09 0.120172716E-08 0.604551431E-08 0.219816787E-07 0.616990903E-07 0.140227741E-06 0.267290574E-06 0.438549904E-06 0.631430908E-06 0.809355583E-06 0.933435615E-06 0.976267074E-06 0.931259137E-06 0.813494296E-06 0.652581491E-06 0.481613995E-06 0.327344679E-06 0.204999765E-06 0.118287971E-06 0.628639683E-07 0.307495327E-07 0.138305216E-07 0.571333114E-08 0.216463891E-08 0.788028476E-09 0.275141188E-09 0.919450835E-10 0.293398535E-10 0.891713873E-11 0.257384760E-11 0.703290345E-12 0.181266582E-12 0.438909502E-13 0.993853318E-14 0.209366682E-14 0.407902771E-15 0.729965781E-16 0.119039620E-16 0.175247684E-17 0.230309184E-18 0.266602589E-19 0.106171944E-19 0.332136777E-17 0.898211631E-15 0.152634212E-12 0.165991786E-10 0.113164844E-08 0.446524453E-07 0.617150278E-07 0.200442596E-08 0.363946547E-10 0.413054519E-12 0.304979253E-14 0.146932589E-16 0.459838427E-19 0.445530383E-20 0.387268256E-19 0.302765553E-18 0.211395622E-17 0.133314152E-16 0.766550590E-16 0.405102586E-15 0.198123547E-14 0.902087463E-14 0.384391683E-13 0.153998437E-12 0.582441322E-12 0.208720454E-11 0.711001136E-11 0.230907394E-10 0.716816814E-10 0.213209797E-09 0.608916306E-09 0.167297198E-08 0.442939063E-08 0.107790381E-07 0.241351543E-07 0.497628747E-07 0.945333483E-07 0.165501078E-06 0.267002434E-06 0.396742081E-06 0.542415648E-06 0.681159975E-06 0.783694759E-06 0.823044218E-06 0.784940482E-06 0.674996841E-06 0.518338538E-06 0.350803958E-06 0.205551729E-06 0.101782398E-06 0.412047676E-07 0.130294406E-07 0.301888914E-08 0.467008821E-09 0.415182992E-10 0.153917384E-11 0.270754309E-17
0.477682061E-10 0.608114781E-09 0.446354376E-08 0.217508322E-07 0.772049873E-07 0.212957545E-06 0.478326740E-06 0.905393279E-06 0.148130425E-05 0.213462113E-05 0.274751324E-05 0.319152059E-05 0.337128176E-05 0.325624683E-05 0.288698538E-05 0.235565903E-05 0.177188656E-05 0.122971505E-05 0.787690510E-06 0.465618371E-06 0.253870837E-06 0.127573969E-06 0.590241420E-07 0.251115075E-07 0.980983828E-08 0.367731090E-08 0.132048150E-08 0.453340837E-09 0.148476814E-09 0.462771592E-10 0.136883560E-10 0.383059817E-11 0.101064350E-11 0.250401181E-12 0.580023429E-13 0.124974282E-13 0.249020423E-14 0.455794623E-15 0.760356661E-16 0.114539749E-16 0.154085188E-17 0.182627792E-18 0.302153213E-19 0.459671546E-17 0.119176795E-14 0.196806479E-12 0.209921368E-10 0.141258782E-08 0.552732473E-07 0.761917391E-07 0.248436316E-08 0.454816705E-10 0.522972941E-12 0.393826571E-14 0.195398077E-16 0.661744684E-19 0.307609018E-19 0.265396919E-18 0.202699741E-17 0.138330539E-16 0.852978523E-16 0.479687199E-15 0.247973702E-14 0.118636925E-13 0.528381727E-13 0.220198114E-12 0.862528907E-12 0.318828102E-11 0.111608544E-10 0.371161296E-10 0.117590396E-09 0.355806606E-09 0.103053355E-08 0.286275181E-08 0.764101049E-08 0.196266807E-07 0.463875800E-07 0.100992558E-06 0.202715711E-06 0.375377425E-06 0.641481449E-06 0.101168575E-05 0.147193475E-05 0.197391569E-05 0.243611680E-05 0.276034075E-05 0.286157228E-05 0.270070086E-05 0.230461137E-05 0.176151627E-05 0.119065669E-05 0.699448265E-06 0.348766235E-06 0.142916107E-06 0.460249829E-07 0.109394191E-07 0.175053005E-08 0.162461752E-09 0.634714243E-11 0.112537037E-16
0.174762177E-09 0.211998441E-08 0.149736543E-07 0.708029333E-07 0.245640763E-06 0.666364599E-06 0.147972787E-05 0.278151037E-05 0.453705798E-05 0.654112137E-05 0.844979240E-05 0.987960993E-05 0.105326999E-04 0.102931263E-04 0.925475888E-05 0.767458369E-05 0.587842260E-05 0.416203375E-05 0.272435523E-05 0.164823473E-05 0.921096841E-06 0.475047102E-06 0.225853668E-06 0.988559989E-07 0.397749780E-07 0.153358215E-07 0.565722580E-08 0.199301020E-08 0.669155786E-09 0.213619039E-09 0.646693740E-10 0.185099557E-10 0.499220630E-11 0.126385534E-11 0.299040144E-12 0.658006025E-13 0.133880588E-13 0.250218234E-14 0.426259299E-15 0.655851258E-16 0.901436203E-17 0.109199535E-17 0.130940894E-18 0.627858747E-17 0.156438250E-14 0.251480911E-12 0.263251816E-10 0.174846826E-08 0.678178793E-07 0.932392865E-07 0.305423664E-08 0.563960267E-10 0.656972849E-12 0.504244643E-14 0.257189726E-16 0.105416595E-18 0.187506245E-18 0.158795589E-17 0.118715696E-16 0.793344624E-16 0.479181838E-15 0.264011001E-14 0.133723522E-13 0.626832502E-13 0.273498238E-12 0.111633662E-11 0.428138124E-11 0.154882895E-10 0.530324777E-10 0.172392434E-09 0.533461664E-09 0.157520219E-08 0.444773240E-08 0.120316361E-07 0.312327870E-07 0.779152387E-07 0.179041820E-06 0.379404526E-06 0.742115787E-06 0.134081472E-05 0.223865936E-05 0.345452986E-05 0.492565596E-05 0.648473952E-05 0.787184308E-05 0.879136769E-05 0.900316445E-05 0.841456222E-05 0.712984320E-05 0.542710495E-05 0.366497898E-05 0.215881914E-05 0.108384040E-05 0.449337307E-06 0.147237330E-06 0.358492365E-07 0.592262506E-08 0.572442760E-09 0.235054875E-10 0.418860373E-16