<?xml version="1.0"?>
<VTKFile type="StructuredGrid">
<StructuredGrid WholeExtent="     0   100     0   100     0     0">
<Piece Extent="     0   100     0   100     0     0">
<Points>
<DataArray type="Float32" NumberOfComponents="3"/>
0.000000000E+00 0.000000000E+00 0.000000000E+00 0.199999996E-01 0.000000000E+00 0.000000000E+00 0.399999991E-01 0.000000000E+00 0.000000000E+00 0.599999987E-01 0.000000000E+00 0.000000000E+00 0.799999982E-01 0.000000000E+00 0.000000000E+00 0.100000001E+00 0.000000000E+00 0.000000000E+00 0.119999997E+00 0.000000000E+00 0.000000000E+00 0.140000001E+00 0.000000000E+00 0.000000000E+00 0.159999996E+00 0.000000000E+00 0.000000000E+00 0.180000007E+00 0.000000000E+00 0.000000000E+00 0.200000003E+00 0.000000000E+00 0.000000000E+00 0.219999999E+00 0.000000000E+00 0.000000000E+00 0.239999995E+00 0.000000000E+00 0.000000000E+00 0.259999990E+00 0.000000000E+00 0.000000000E+00 0.280000001E+00 0.000000000E+00 0.000000000E+00 0.300000012E+00 0.000000000E+00 0.000000000E+00 0.319999993E+00 0.000000000E+00 0.000000000E+00 0.340000004E+00 0.000000000E+00 0.000000000E+00 0.360000014E+00 0.000000000E+00 0.000000000E+00 0.379999995E+00 0.000000000E+00 0.000000000E+00 0.400000006E+00 0.000000000E+00 0.000000000E+00 0.419999987E+00 0.000000000E+00 0.000000000E+00 0.439999998E+00 0.000000000E+00 0.000000000E+00 0.460000008E+00 0.000000000E+00 0.000000000E+00 0.479999989E+00 0.000000000E+00 0.000000000E+00 0.500000000E+00 0.000000000E+00 0.000000000E+00 0.519999981E+00 0.000000000E+00 0.000000000E+00 0.540000021E+00 0.000000000E+00 0.000000000E+00 0.560000002E+00 0.000000000E+00 0.000000000E+00 0.579999983E+00 0.000000000E+00 0.000000000E+00 0.600000024E+00 0.000000000E+00 0.000000000E+00 0.620000005E+00 0.000000000E+00 0.000000000E+00 0.639999986E+00 0.000000000E+00 0.000000000E+00 0.660000026E+00 0.000000000E+00 0.000000000E+00 0.680000007E+00 0.000000000E+00 0.000000000E+00 0.699999988E+00 0.000000000E+00 0.000000000E+00 0.720000029E+00 0.000000000E+00 0.000000000E+00 0.740000010E+00 0.000000000E+00 0.000000000E+00 0.759999990E+00 0.000000000E+00 0.000000000E+00 0.779999971E+00 0.000000000E+00 0.000000000E+00 0.800000012E+00 0.000000000E+00 0.000000000E+00 0.819999993E+00 0.000000000E+00 0.000000000E+00 0.839999974E+00 0.000000000E+00 0.000000000E+00 0.860000014E+00 0.000000000E+00 0.000000000E+00 0.879999995E+00 0.000000000E+00 0.000000000E+00 0.899999976E+00 0.000000000E+00 0.000000000E+00 0.920000017E+00 0.000000000E+00 0.000000000E+00 0.939999998E+00 0.000000000E+00 0.000000000E+00 0.959999979E+00 0.000000000E+00 0.000000000E+00 0.980000019E+00 0.000000000E+00 0.000000000E+00 0.100000000E+01 0.000000000E+00 0.000000000E+00 0.101999998E+01 0.000000000E+00 0.000000000E+00 0.103999996E+01 0.000000000E+00 0.000000000E+00 0.105999994E+01 0.000000000E+00 0.000000000E+00 0.108000004E+01 0.000000000E+00 0.000000000E+00 0.110000002E+01 0.000000000E+00 0.000000000E+00 0.112000000E+01 0.000000000E+00 0.000000000E+00 0.113999999E+01 0.000000000E+00 0.000000000E+00 0.115999997E+01 0.000000000E+00 0.000000000E+00 0.117999995E+01 0.000000000E+00 0.000000000E+00 0.120000005E+01 0.000000000E+00 0.000000000E+00 0.122000003E+01 0.000000000E+00 0.000000000E+00 0.124000001E+01 0.000000000E+00 0.000000000E+00 0.125999999E+01 0.000000000E+00 0.000000000E+00 0.127999997E+01 0.000000000E+00 0.000000000E+00 0.129999995E+01 0.000000000E+00 0.000000000E+00 0.132000005E+01 0.000000000E+00 0.000000000E+00 0.134000003E+01 0.000000000E+00 0.000000000E+00 0.136000001E+01 0.000000000E+00 0.000000000E+00 0.138000000E+01 0.000000000E+00 0.000000000E+00 0.139999998E+01 0.000000000E+00 0.000000000E+00 0.141999996E+01 0.000000000E+00 0.000000000E+00 0.144000006E+01 0.000000000E+00 0.000000000E+00 0.146000004E+01 0.000000000E+00 0.000000000E+00 0.148000002E+01 0.000000000E+00 0.000000000E+00 0.150000000E+01 0.000000000E+00 0.000000000E+00 0.151999998E+01 0.000000000E+00 0.000000000E+00 0.153999996E+01 0.000000000E+00 0.000000000E+00 0.155999994E+01 0.000000000E+00 0.000000000E+00 0.158000004E+01 0.000000000E+00 0.000000000E+00 0.160000002E+01 0.000000000E+00 0.000000000E+00 0.162000000E+01 0.000000000E+00 0.000000000E+00 0.163999999E+01 0.000000000E+00 0.000000000E+00 0.165999997E+01 0.000000000E+00 0.000000000E+00 0.167999995E+01 0.000000000E+00 0.000000000E+00 0.170000005E+01 0.000000000E+00 0.000000000E+00 0.172000003E+01 0.000000000E+00 0.000000000E+00 0.174000001E+01 0.000000000E+00 0.000000000E+00 0.175999999E+01 0.000000000E+00 0.000000000E+00 0.177999997E+01 0.000000000E+00 0.000000000E+00 0.179999995E+01 0.000000000E+00 0.000000000E+00 0.182000005E+01 0.000000000E+00 0.000000000E+00 0.184000003E+01 0.000000000E+00 0.000000000E+00 0.186000001E+01 0.000000000E+00 0.000000000E+00 0.188000000E+01 0.000000000E+00 0.000000000E+00 0.189999998E+01 0.000000000E+00 0.000000000E+00 0.191999996E+01 0.000000000E+00 0.000000000E+00 0.194000006E+01 0.000000000E+00 0.000000000E+00 0.196000004E+01 0.000000000E+00 0.000000000E+00 0.198000002E+01 0.000000000E+00 0.000000000E+00 0.200000000E+01 0.000000000E+00 0.000000000E+00
0.000000000E+00 0.999999978E-02 0.000000000E+00 0.199999996E-01 0.999999978E-02 0.000000000E+00 0.399999991E-01 0.999999978E-02 0.000000000E+00 0.599999987E-01 0.999999978E-02 0.000000000E+00 0.799999982E-01 0.999999978E-02 0.000000000E+00 0.100000001E+00 0.999999978E-02 0.000000000E+00 0.119999997E+00 0.999999978E-02 0.000000000E+00 0.140000001E+00 0.999999978E-02 0.000000000E+00 0.159999996E+00 0.999999978E-02 0.000000000E+00 0.180000007E+00 0.999999978E-02 0.000000000E+00 0.200000003E+00 0.999999978E-02 0.000000000E+00 0.219999999E+00 0.999999978E-02 0.000000000E+00 0.239999995E+00 0.999999978E-02 0.000000000E+00 0.259999990E+00 0.999999978E-02 0.000000000E+00 0.280000001E+00 0.999999978E-02 0.000000000E+00 0.300000012E+00 0.999999978E-02 0.000000000E+00 0.319999993E+00 0.999999978E-02 0.000000000E+00 0.340000004E+00 0.999999978E-02 0.000000000E+00 0.360000014E+00 0.999999978E-02 0.000000000E+00 0.379999995E+00 0.999999978E-02 0.000000000E+00 0.400000006E+00 0.999999978E-02 0.000000000E+00 0.419999987E+00 0.999999978E-02 0.000000000E+00 0.439999998E+00 0.999999978E-02 0.000000000E+00 0.460000008E+00 0.999999978E-02 0.000000000E+00 0.479999989E+00 0.999999978E-02 0.000000000E+00 0.500000000E+00 0.999999978E-02 0.000000000E+00 0.519999981E+00 0.999999978E-02 0.000000000E+00 0.540000021E+00 0.999999978E-02 0.000000000E+00 0.560000002E+00 0.999999978E-02 0.000000000E+00 0.579999983E+00 0.999999978E-02 0.000000000E+00 0.600000024E+00 0.999999978E-02 0.000000000E+00 0.620000005E+00 0.999999978E-02 0.000000000E+00 0.639999986E+00 0.999999978E-02 0.000000000E+00 0.660000026E+00 0.999999978E-02 0.000000000E+00 0.680000007E+00 0.999999978E-02 0.000000000E+00 0.699999988E+00 0.999999978E-02 0.000000000E+00 0.720000029E+00 0.999999978E-02 0.000000000E+00 0.740000010E+00 0.999999978E-02 0.000000000E+00 0.759999990E+00 0.999999978E-02 0.000000000E+00 0.779999971E+00 0.999999978E-02 0.000000000E+00 0.800000012E+00 0.999999978E-02 0.000000000E+00 0.819999993E+00 0.999999978E-02 0.000000000E+00 0.839999974E+00 0.999999978E-02 0.000000000E+00 0.860000014E+00 0.999999978E-02 0.000000000E+00 0.879999995E+00 0.999999978E-02 0.000000000E+00 0.899999976E+00 0.999999978E-02 0.000000000E+00 0.920000017E+00 0.999999978E-02 0.000000000E+00 0.939999998E+00 0.999999978E-02 0.000000000E+00 0.959999979E+00 0.999999978E-02 0.000000000E+00 0.980000019E+00 0.999999978E-02 0.000000000E+00 0.100000000E+01 0.999999978E-02 0.000000000E+00 0.101999998E+01 0.999999978E-02 0.000000000E+00 0.103999996E+01 0.999999978E-02 0.000000000E+00 0.105999994E+01 0.999999978E-02 0.000000000E+00 0.108000004E+01 0.999999978E-02 0.000000000E+00 0.110000002E+01 0.999999978E-02 0.000000000E+00 0.112000000E+01 0.999999978E-02 0.000000000E+00 0.113999999E+01 0.999999978E-02 0.000000000E+00 0.115999997E+01 0.999999978E-02 0.000000000E+00 0.117999995E+01 0.999999978E-02 0.000000000E+00 0.120000005E+01 0.999999978E-02 0.000000000E+00 0.122000003E+01 0.999999978E-02 0.000000000E+00 0.124000001E+01 0.999999978E-02 0.000000000E+00 0.125999999E+01 0.999999978E-02 0.000000000E+00 0.127999997E+01 0.999999978E-02 0.000000000E+00 0.129999995E+01 0.999999978E-02 0.000000000E+00 0.132000005E+01 0.999999978E-02 0.000000000E+00 0.134000003E+01 0.999999978E-02 0.000000000E+00 0.136000001E+01 0.999999978E-02 0.000000000E+00 0.138000000E+01 0.999999978E-02 0.000000000E+00 0.139999998E+01 0.999999978E-02 0.000000000E+00 0.141999996E+01 0.999999978E-02 0.000000000E+00 0.144000006E+01 0.999999978E-02 0.000000000E+00 0.146000004E+01 0.999999978E-02 0.000000000E+00 0.148000002E+01 0.999999978E-02 0.000000000E+00 0.150000000E+01 0.999999978E-02 0.000000000E+00 0.151999998E+01 0.999999978E-02 0.000000000E+00 0.153999996E+01 0.999999978E-02 0.000000000E+00 0.155999994E+01 0.999999978E-02 0.000000000E+00 0.158000004E+01 0.999999978E-02 0.000000000E+00 0.160000002E+01 0.999999978E-02 0.000000000E+00 0.162000000E+01 0.999999978E-02 0.000000000E+00 0.163999999E+01 0.999999978E-02 0.000000000E+00 0.165999997E+01 0.999999978E-02 0.000000000E+00 0.167999995E+01 0.999999978E-02 0.000000000E+00 0.170000005E+01 0.999999978E-02 0.000000000E+00 0.172000003E+01 0.999999978E-02 0.000000000E+00 0.174000001E+01 0.999999978E-02 0.000000000E+00 0.175999999E+01 0.999999978E-02 0.000000000E+00 0.177999997E+01 0.999999978E-02 0.000000000E+00 0.179999995E+01 0.999999978E-02 0.000000000E+00 0.182000005E+01 0.999999978E-02 0.000000000E+00 0.184000003E+01 0.999999978E-02 0.000000000E+00 0.186000001E+01 0.999999978E-02 0.000000000E+00 0.188000000E+01 0.999999978E-02 0.000000000E+00 0.189999998E+01 0.999999978E-02 0.000000000E+00 0.191999996E+01 0.999999978E-02 0.000000000E+00 0.194000006E+01 0.999999978E-02 0.000000000E+00 0.196000004E+01 0.999999978E-02 0.000000000E+00 0.198000002E+01 0.999999978E-02 0.000000000E+00 0.200000000E+01 0.999999978E-02 0.000000000E+00
[...]
<CellData Scalars="Temperature, U, V">
<DataArray type="Float32" Name="Temp, K"/>
0.000000000E+00 0.000000000E+00 0.000000000E+00 0.000000000E+00 0.000000000E+00 0.000000000E+00 0.000000000E+00 0.000000000E+00 0.000000000E+00 0.000000000E+00 0.000000000E+00 0.000000000E+00 0.000000000E+00 0.000000000E+00 0.000000000E+00 0.000000000E+00 0.000000000E+00 0.000000000E+00 0.000000000E+00 0.000000000E+00 0.000000000E+00 0.000000000E+00 0.000000000E+00 0.000000000E+00 0.000000000E+00 0.000000000E+00 0.000000000E+00 0.000000000E+00 0.000000000E+00 0.000000000E+00 0.000000000E+00 0.000000000E+00 0.000000000E+00 0.000000000E+00 0.000000000E+00 0.000000000E+00 0.000000000E+00 0.238220739E-43 0.812753109E-43 0.839573121E-37 0.866368136E-31 0.641843795E-25 0.264517707E-19 0.268061154E-17 0.310070925E-12 0.148437564E-10 0.347108897E-09 0.469034811E-08 0.363610475E-07 0.497917654E-07 0.882780160E-08 0.881823725E-09 0.535663493E-10 0.191894200E-11 0.326261167E-13 0.303604443E-18 0.264570023E-20 0.656086216E-26 0.905921758E-32 0.902086727E-38 0.770714155E-43 0.154142831E-43 0.000000000E+00 0.000000000E+00 0.000000000E+00 0.000000000E+00 0.000000000E+00 0.000000000E+00 0.000000000E+00 0.000000000E+00 0.000000000E+00 0.000000000E+00 0.000000000E+00 0.000000000E+00 0.000000000E+00 0.000000000E+00 0.000000000E+00 0.000000000E+00 0.000000000E+00 0.000000000E+00 0.000000000E+00 0.000000000E+00 0.000000000E+00 0.000000000E+00 0.000000000E+00 0.000000000E+00 0.000000000E+00 0.000000000E+00 0.000000000E+00 0.000000000E+00 0.000000000E+00 0.000000000E+00 0.000000000E+00 0.000000000E+00 0.000000000E+00 0.000000000E+00 0.000000000E+00 0.000000000E+00 0.000000000E+00 0.000000000E+00
0.000000000E+00 0.000000000E+00 0.000000000E+00 0.000000000E+00 0.000000000E+00 0.000000000E+00 0.000000000E+00 0.000000000E+00 0.000000000E+00 0.000000000E+00 0.000000000E+00 0.000000000E+00 0.000000000E+00 0.000000000E+00 0.000000000E+00 0.000000000E+00 0.700649232E-43 0.700649232E-43 0.000000000E+00 0.000000000E+00 0.000000000E+00 0.000000000E+00 0.000000000E+00 0.000000000E+00 0.000000000E+00 0.000000000E+00 0.000000000E+00 0.000000000E+00 0.000000000E+00 0.000000000E+00 0.000000000E+00 0.000000000E+00 0.000000000E+00 0.000000000E+00 0.000000000E+00 0.000000000E+00 0.126116862E-43 0.546506401E-43 0.294561205E-38 0.314416270E-32 0.253563911E-26 0.140848663E-20 0.436219215E-15 0.385957474E-13 0.217999967E-11 0.685626000E-10 0.134299927E-08 0.166496505E-07 0.124276013E-06 0.169428588E-06 0.302698986E-07 0.316319260E-08 0.211416898E-09 0.920428751E-11 0.252277122E-12 0.401501410E-14 0.395625002E-16 0.129854999E-21 0.238476855E-27 0.304147064E-33 0.295473590E-39 0.560519386E-43 0.980908925E-44 0.000000000E+00 0.000000000E+00 0.000000000E+00 0.000000000E+00 0.000000000E+00 0.000000000E+00 0.000000000E+00 0.000000000E+00 0.000000000E+00 0.000000000E+00 0.000000000E+00 0.000000000E+00 0.000000000E+00 0.000000000E+00 0.000000000E+00 0.000000000E+00 0.000000000E+00 0.000000000E+00 0.700649232E-43 0.700649232E-43 0.000000000E+00 0.000000000E+00 0.000000000E+00 0.000000000E+00 0.000000000E+00 0.000000000E+00 0.000000000E+00 0.000000000E+00 0.000000000E+00 0.000000000E+00 0.000000000E+00 0.000000000E+00 0.000000000E+00 0.000000000E+00 0.000000000E+00 0.000000000E+00 0.000000000E+00
0.000000000E+00 0.000000000E+00 0.000000000E+00 0.000000000E+00 0.000000000E+00 0.000000000E+00 0.000000000E+00 0.000000000E+00 0.000000000E+00 0.000000000E+00 0.000000000E+00 0.000000000E+00 0.000000000E+00 0.000000000E+00 0.489053164E-42 0.482326931E-41 0.152363182E-40 0.148859936E-40 0.587003927E-41 0.125836602E-41 0.140129846E-42 0.000000000E+00 0.000000000E+00 0.000000000E+00 0.000000000E+00 0.000000000E+00 0.000000000E+00 0.000000000E+00 0.000000000E+00 0.000000000E+00 0.000000000E+00 0.000000000E+00 0.000000000E+00 0.000000000E+00 0.000000000E+00 0.420389539E-44 0.546506401E-43 0.858183206E-40 0.910219025E-34 0.729618157E-28 0.385327913E-22 0.977051181E-17 0.244828584E-14 0.177487907E-12 0.767041292E-11 0.207817416E-09 0.372297992E-08 0.437931540E-07 0.318097591E-06 0.430390827E-06 0.774106184E-07 0.832753688E-08 0.587909832E-09 0.280824530E-10 0.899320169E-12 0.183999358E-13 0.222827210E-15 0.796064663E-18 0.321750666E-23 0.630422698E-29 0.820381339E-35 0.812192590E-41 0.280259693E-43 0.000000000E+00 0.000000000E+00 0.000000000E+00 0.000000000E+00 0.000000000E+00 0.000000000E+00 0.000000000E+00 0.000000000E+00 0.000000000E+00 0.000000000E+00 0.000000000E+00 0.000000000E+00 0.000000000E+00 0.000000000E+00 0.000000000E+00 0.700649232E-43 0.118830110E-41 0.545105103E-41 0.136290289E-40 0.136990938E-40 0.412402138E-41 0.418988241E-42 0.000000000E+00 0.000000000E+00 0.000000000E+00 0.000000000E+00 0.000000000E+00 0.000000000E+00 0.000000000E+00 0.000000000E+00 0.000000000E+00 0.000000000E+00 0.000000000E+00 0.000000000E+00 0.000000000E+00 0.000000000E+00 0.000000000E+00
0.000000000E+00 0.000000000E+00 0.000000000E+00 0.000000000E+00 0.000000000E+00 0.000000000E+00 0.000000000E+00 0.000000000E+00 0.000000000E+00 0.000000000E+00 0.000000000E+00 0.000000000E+00 0.210194770E-42 0.789771814E-41 0.190800799E-39 0.152934211E-38 0.359271346E-38 0.299788048E-38 0.116367608E-38 0.261600003E-39 0.380214312E-40 0.377509806E-41 0.210194770E-42 0.000000000E+00 0.000000000E+00 0.000000000E+00 0.000000000E+00 0.000000000E+00 0.000000000E+00 0.000000000E+00 0.000000000E+00 0.000000000E+00 0.000000000E+00 0.000000000E+00 0.000000000E+00 0.966895940E-43 0.224207754E-41 0.222761489E-35 0.177170828E-29 0.968439075E-24 0.268883020E-18 0.723685627E-16 0.916980843E-14 0.554955170E-12 0.209220731E-10 0.520405774E-09 0.880915074E-08 0.998653249E-07 0.709704750E-06 0.952140965E-06 0.172425800E-06 0.189480307E-07 0.138778267E-08 0.702012962E-10 0.245443466E-11 0.573719064E-13 0.836902751E-15 0.591980532E-17 0.198838403E-19 0.745275108E-25 0.143053619E-30 0.190221536E-36 0.166754517E-42 0.742688186E-43 0.000000000E+00 0.000000000E+00 0.000000000E+00 0.000000000E+00 0.000000000E+00 0.000000000E+00 0.000000000E+00 0.000000000E+00 0.000000000E+00 0.000000000E+00 0.000000000E+00 0.000000000E+00 0.210194770E-42 0.349483837E-41 0.348769175E-40 0.241124229E-39 0.107617200E-38 0.276011096E-38 0.323026481E-38 0.132015908E-38 0.157183649E-39 0.622036388E-41 0.140129846E-42 0.000000000E+00 0.000000000E+00 0.000000000E+00 0.000000000E+00 0.000000000E+00 0.000000000E+00 0.000000000E+00 0.000000000E+00 0.000000000E+00 0.000000000E+00 0.000000000E+00 0.000000000E+00 0.000000000E+00
0.000000000E+00 0.000000000E+00 0.000000000E+00 0.000000000E+00 0.000000000E+00 0.000000000E+00 0.000000000E+00 0.000000000E+00 0.000000000E+00 0.000000000E+00 0.000000000E+00 0.839377780E-42 0.525585015E-40 0.306937333E-38 0.591019207E-37 0.314079101E-36 0.566746487E-36 0.422423866E-36 0.161887169E-36 0.376536633E-37 0.585157296E-38 0.641452780E-39 0.510885394E-40 0.293572028E-41 0.700649232E-43 0.000000000E+00 0.000000000E+00 0.000000000E+00 0.000000000E+00 0.000000000E+00 0.000000000E+00 0.000000000E+00 0.000000000E+00 0.000000000E+00 0.882818033E-43 0.700649232E-43 0.484491321E-37 0.355953942E-31 0.184065485E-25 0.501980532E-20 0.200821110E-17 0.308263771E-15 0.276698932E-13 0.144790777E-11 0.496324683E-10 0.116124876E-08 0.188412379E-07 0.207370661E-06 0.144533908E-05 0.192284733E-05 0.350864383E-06 0.392522530E-07 0.295780644E-08 0.156055904E-09 0.580786200E-11 0.149329605E-12 0.252994596E-14 0.253036220E-16 0.149355499E-18 0.342474407E-21 0.132758290E-26 0.273697439E-32 0.400667525E-38 0.868805048E-43 0.868805048E-43 0.000000000E+00 0.000000000E+00 0.000000000E+00 0.000000000E+00 0.000000000E+00 0.000000000E+00 0.000000000E+00 0.000000000E+00 0.000000000E+00 0.700649232E-43 0.279559044E-41 0.464068012E-40 0.584073812E-39 0.535451417E-38 0.346301320E-37 0.149329617E-36 0.388228417E-36 0.510625627E-36 0.272259265E-36 0.487222284E-37 0.240066249E-38 0.391396674E-40 0.559118087E-42 0.000000000E+00 0.000000000E+00 0.000000000E+00 0.000000000E+00 0.000000000E+00 0.000000000E+00 0.000000000E+00 0.000000000E+00 0.000000000E+00 0.000000000E+00 0.000000000E+00 0.000000000E+00
0.000000000E+00 0.000000000E+00 0.000000000E+00 0.000000000E+00 0.000000000E+00 0.000000000E+00 0.000000000E+00 0.000000000E+00 0.000000000E+00 0.000000000E+00 0.174741919E-41 0.162983623E-39 0.229689564E-37 0.101031458E-35 0.113003736E-34 0.421960256E-34 0.626797063E-34 0.434029966E-34 0.166257892E-34 0.401079081E-35 0.661509284E-36 0.784824951E-37 0.689915846E-38 0.455686846E-39 0.226449832E-40 0.104817125E-41 0.000000000E+00 0.000000000E+00 0.000000000E+00 0.000000000E+00 0.000000000E+00 0.000000000E+00 0.000000000E+00 0.238220739E-43 0.476441478E-43 0.105252228E-38 0.683554419E-33 0.314379391E-27 0.765636777E-22 0.411310519E-19 0.883469426E-17 0.100015353E-14 0.723785452E-13 0.337462632E-11 0.107369794E-09 0.239110953E-08 0.374460498E-07 0.401534038E-06 0.274724539E-05 0.362574383E-05 0.667331562E-06 0.759046372E-07 0.586145799E-08 0.320158927E-09 0.125267349E-10 0.347356150E-12 0.662598045E-14 0.823527651E-16 0.660589126E-18 0.282783729E-20 0.493445394E-23 0.218052810E-28 0.515086414E-34 0.869912074E-40 0.364337601E-43 0.308285662E-43 0.000000000E+00 0.000000000E+00 0.000000000E+00 0.000000000E+00 0.000000000E+00 0.000000000E+00 0.000000000E+00 0.839377780E-42 0.205472394E-40 0.412773482E-39 0.625267362E-38 0.713365511E-37 0.603951925E-36 0.367905051E-35 0.152943266E-34 0.398055850E-34 0.565364512E-34 0.367540292E-34 0.936825806E-35 0.790388386E-36 0.169373544E-37 0.114200220E-39 0.111823617E-41 0.000000000E+00 0.000000000E+00 0.000000000E+00 0.000000000E+00 0.000000000E+00 0.000000000E+00 0.000000000E+00 0.000000000E+00 0.000000000E+00 0.000000000E+00 0.000000000E+00
0.000000000E+00 0.000000000E+00 0.000000000E+00 0.000000000E+00 0.000000000E+00 0.000000000E+00 0.000000000E+00 0.000000000E+00 0.000000000E+00 0.181748411E-41 0.257405916E-39 0.873544632E-37 0.839903772E-35 0.186277020E-33 0.135388967E-32 0.390233488E-32 0.505933577E-32 0.335134064E-32 0.129774879E-32 0.326068955E-33 0.570352671E-34 0.727691772E-35 0.697864213E-36 0.511737215E-37 0.288675331E-38 0.147398382E-39 0.670941705E-41 0.280259693E-42 0.000000000E+00 0.000000000E+00 0.000000000E+00 0.000000000E+00 0.364337601E-43 0.574532370E-43 0.250930516E-40 0.138126125E-34 0.555598703E-29 0.119565153E-23 0.715778357E-21 0.196974115E-18 0.298674868E-16 0.275029438E-14 0.170974644E-12 0.726121116E-11 0.217132576E-09 0.463333016E-08 0.702934813E-07 0.735573565E-06 0.494106825E-05 0.647217303E-05 0.120293760E-05 0.139077159E-06 0.109854810E-07 0.618735396E-09 0.252707334E-10 0.746354476E-12 0.156687780E-13 0.227139217E-15 0.224508006E-17 0.136498517E-19 0.466332000E-22 0.751614406E-25 0.383688056E-30 0.105883197E-35 0.220844638E-41 0.784727140E-43 0.560519386E-43 0.000000000E+00 0.000000000E+00 0.000000000E+00 0.000000000E+00 0.210194770E-42 0.622036388E-41 0.134468601E-39 0.261774464E-38 0.462857319E-37 0.631431456E-36 0.660133779E-35 0.519516673E-34 0.298328390E-33 0.119070378E-32 0.306729676E-32 0.456547459E-32 0.341335421E-32 0.113011880E-32 0.146713829E-33 0.619685839E-35 0.603086069E-37 0.168085751E-39 0.111823617E-41 0.000000000E+00 0.000000000E+00 0.000000000E+00 0.000000000E+00 0.000000000E+00 0.000000000E+00 0.000000000E+00 0.000000000E+00 0.000000000E+00 0.000000000E+00
0.000000000E+00 0.000000000E+00 0.000000000E+00 0.000000000E+00 0.000000000E+00 0.000000000E+00 0.000000000E+00 0.000000000E+00 0.111823617E-41 0.221971282E-39 0.179817545E-36 0.364539022E-34 0.153507265E-32 0.205849162E-31 0.109534186E-30 0.261572602E-30 0.308543781E-30 0.199481626E-30 0.787478947E-31 0.206837826E-31 0.384090281E-32 0.525921637E-33 0.546601142E-34 0.439414626E-35 0.275958985E-36 0.159266118E-37 0.830436095E-39 0.383703546E-40 0.160728934E-41 0.000000000E+00 0.000000000E+00 0.406376555E-43 0.630584309E-43 0.779121946E-42 0.326857194E-36 0.104054419E-30 0.192677366E-25 0.125918301E-22 0.384169576E-20 0.720297504E-18 0.858732457E-16 0.676472868E-14 0.374314132E-12 0.147069579E-10 0.416748552E-09 0.855592219E-08 0.126002263E-06 0.128763816E-05 0.849009848E-05 0.110425317E-04 0.207495668E-05 0.243899876E-06 0.196904324E-07 0.114105270E-08 0.484308496E-10 0.151062919E-11 0.343457765E-13 0.560415897E-15 0.648984195E-17 0.503238752E-19 0.253117091E-21 0.803209644E-24 0.123056745E-26 0.746926523E-32 0.268513252E-37 0.728675201E-43 0.742688186E-43 0.448415509E-43 0.000000000E+00 0.000000000E+00 0.146856079E-41 0.358536225E-40 0.764249966E-39 0.145107062E-37 0.249874408E-36 0.396853680E-35 0.493718533E-34 0.476143170E-33 0.349080092E-32 0.188797323E-31 0.720852280E-31 0.182242355E-30 0.278435468E-30 0.229557284E-30 0.920177330E-31 0.163442762E-31 0.114087320E-32 0.251935301E-34 0.115337121E-36 0.133909483E-39 0.629183010E-42 0.000000000E+00 0.000000000E+00 0.000000000E+00 0.000000000E+00 0.000000000E+00 0.000000000E+00 0.000000000E+00 0.000000000E+00 0.000000000E+00
0.000000000E+00 0.000000000E+00 0.000000000E+00 0.000000000E+00 0.000000000E+00 0.000000000E+00 0.000000000E+00 0.418988241E-42 0.110287794E-39 0.210324922E-36 0.874129971E-34 0.678689810E-32 0.161230300E-30 0.151028060E-29 0.637976030E-29 0.132578414E-28 0.146395126E-28 0.936305437E-29 0.378867133E-29 0.104249516E-29 0.205648905E-30 0.302019176E-31 0.339235437E-32 0.296994456E-33 0.205137870E-34 0.131465499E-35 0.772295268E-37 0.409131227E-38 0.191500047E-39 0.775758830E-41 0.309686961E-42 0.196181785E-43 0.616571324E-43 0.107639340E-37 0.274914094E-32 0.333424335E-27 0.229486441E-24 0.753657388E-22 0.155481262E-19 0.222877467E-17 0.221117157E-15 0.153568462E-13 0.772926590E-12 0.284022406E-10 0.766974539E-09 0.151891459E-07 0.217378698E-06 0.216985063E-05 0.140376687E-04 0.181365285E-04 0.344925411E-05 0.412410770E-06 0.340216495E-07 0.202596540E-08 0.891021076E-10 0.291782484E-11 0.710375904E-13 0.127654483E-14 0.168056962E-16 0.157039347E-18 0.103637986E-20 0.488015309E-23 0.149262514E-25 0.227141469E-28 0.218328882E-33 0.992699450E-39 0.756701171E-43 0.742688186E-43 0.304081767E-42 0.740866498E-41 0.181644715E-39 0.381112124E-38 0.709613451E-37 0.119614424E-35 0.185495591E-34 0.267821625E-33 0.305890813E-32 0.272924427E-31 0.186539469E-30 0.949672294E-30 0.346138474E-29 0.854058524E-29 0.132086008E-28 0.116645234E-28 0.538917328E-29 0.120847186E-29 0.120864611E-30 0.472462183E-32 0.561432345E-34 0.124209336E-36 0.607336767E-40 0.210194770E-42 0.000000000E+00 0.000000000E+00 0.000000000E+00 0.000000000E+00 0.000000000E+00 0.000000000E+00 0.000000000E+00 0.000000000E+00
0.000000000E+00 0.000000000E+00 0.000000000E+00 0.000000000E+00 0.000000000E+00 0.000000000E+00 0.700649232E-43 0.328478373E-40 0.145370501E-36 0.121249028E-33 0.170326163E-31 0.696507627E-30 0.110585212E-28 0.792466667E-28 0.280745215E-27 0.525411215E-27 0.553903085E-27 0.353617277E-27 0.147135101E-27 0.424379777E-28 0.888912891E-29 0.139890269E-29 0.169542326E-30 0.161116547E-31 0.121584117E-32 0.855345422E-34 0.556557724E-35 0.331068376E-36 0.177204126E-37 0.836705504E-39 0.339688761E-40 0.125696472E-41 0.321170602E-39 0.902571482E-34 0.138030767E-28 0.503179666E-26 0.155990657E-23 0.338112499E-21 0.527813706E-19 0.615199078E-17 0.525712905E-15 0.328266772E-13 0.152412241E-11 0.527804814E-10 0.136354450E-08 0.260926054E-07 0.363098565E-06 0.354001054E-05 0.224592404E-04 0.288344309E-04 0.555617044E-05 0.676161449E-06 0.570031737E-07 0.348592111E-08 0.158554780E-09 0.542838474E-11 0.140392675E-12 0.273923848E-14 0.401983970E-16 0.437325168E-18 0.356076616E-20 0.222371937E-22 0.103520762E-24 0.352918959E-27 0.105860545E-29 0.802435965E-35 0.334938359E-40 0.126537251E-41 0.338497657E-40 0.809408210E-39 0.167731208E-37 0.307938723E-36 0.510728511E-35 0.777263612E-34 0.109793220E-32 0.145076016E-31 0.152640022E-30 0.126214408E-29 0.805032924E-29 0.385976252E-28 0.134214074E-27 0.322137278E-27 0.499624409E-27 0.463141422E-27 0.238247332E-27 0.638538763E-28 0.836031820E-29 0.489101664E-30 0.110141749E-31 0.717062115E-34 0.781819782E-37 0.162844895E-40 0.700649232E-43 0.000000000E+00 0.000000000E+00 0.000000000E+00 0.000000000E+00 0.000000000E+00 0.000000000E+00 0.000000000E+00
0.000000000E+00 0.000000000E+00 0.000000000E+00 0.000000000E+00 0.000000000E+00 0.000000000E+00 0.608163534E-41 0.612697911E-37 0.100960225E-33 0.253663247E-31 0.175167429E-29 0.458472739E-28 0.538245853E-27 0.313479900E-26 0.967933101E-26 0.167189378E-25 0.170630907E-25 0.109395856E-25 0.468819420E-26 0.141665359E-26 0.314614234E-27 0.529607924E-28 0.691284718E-29 0.711451875E-30 0.584423112E-31 0.448385451E-32 0.319644327E-33 0.210091462E-34 0.125878385E-35 0.677013026E-37 0.320632503E-38 0.130812613E-39 0.527172966E-38 0.135043307E-32 0.192906355E-27 0.409832130E-25 0.794437442E-23 0.126773668E-20 0.158874745E-18 0.156329658E-16 0.117709744E-14 0.669794352E-13 0.289615315E-11 0.950274789E-10 0.235497133E-08 0.435911822E-07 0.589975286E-06 0.561663956E-05 0.349259026E-04 0.445711812E-04 0.871070642E-05 0.107967878E-05 0.930449815E-07 0.584160498E-08 0.274447409E-09 0.979470845E-11 0.267574781E-12 0.561391415E-14 0.905968309E-16 0.112169455E-17 0.108529513E-19 0.847417482E-22 0.538514812E-24 0.294812766E-26 0.150447268E-28 0.122426313E-33 0.566479108E-39 0.133781964E-39 0.317729153E-38 0.653738244E-37 0.118978248E-35 0.195173933E-34 0.292979730E-33 0.406955520E-32 0.527066982E-31 0.639786545E-30 0.621579144E-29 0.477250406E-28 0.284586723E-27 0.128690177E-26 0.427128853E-26 0.995524744E-26 0.153863175E-25 0.147582702E-25 0.824526663E-26 0.254136702E-26 0.410133378E-27 0.324776488E-28 0.114233215E-29 0.150928538E-31 0.543690703E-34 0.296068470E-37 0.265686189E-41 0.000000000E+00 0.000000000E+00 0.000000000E+00 0.000000000E+00 0.000000000E+00 0.000000000E+00 0.000000000E+00
0.000000000E+00 0.000000000E+00 0.000000000E+00 0.000000000E+00 0.000000000E+00 0.699247934E-42 0.161301883E-37 0.519614134E-34 0.232048933E-31 0.267483777E-29 0.113226842E-27 0.212071638E-26 0.196772971E-25 0.971510493E-25 0.268870297E-24 0.436424970E-24 0.435547461E-24 0.281596349E-24 0.124376691E-24 0.393266390E-25 0.923999403E-26 0.165955496E-26 0.232696128E-27 0.258710049E-28 0.230692045E-29 0.192278221E-30 0.149205821E-31 0.107226988E-32 0.708172783E-34 0.425076091E-35 0.228444249E-36 0.108536970E-37 0.108071309E-34 0.102503502E-29 0.154802619E-26 0.241888469E-24 0.337192125E-22 0.420537735E-20 0.438463421E-18 0.373321665E-16 0.251609993E-14 0.131726932E-12 0.533968226E-11 0.166635275E-09 0.396870314E-08 0.711064914E-07 0.936005335E-06 0.869822270E-05 0.529814351E-04 0.672255846E-04 0.133380572E-04 0.168504766E-05 0.148505080E-06 0.957175050E-08 0.464142030E-09 0.172319155E-10 0.495234496E-12 0.110973827E-13 0.195040242E-15 0.270515171E-17 0.303458736E-19 0.285920401E-21 0.233629618E-23 0.178206282E-25 0.123107464E-27 0.903017523E-31 0.114780218E-35 0.110098829E-37 0.225968278E-36 0.409885819E-35 0.668558509E-34 0.995028417E-33 0.136606696E-31 0.174314716E-30 0.207822248E-29 0.232413687E-28 0.209041327E-27 0.149424527E-26 0.835136842E-26 0.356946217E-25 0.113214667E-24 0.256047758E-24 0.392632959E-24 0.385653759E-24 0.229746322E-24 0.791768597E-25 0.151010318E-25 0.151493582E-26 0.744869897E-28 0.160424472E-29 0.125619013E-31 0.251373584E-34 0.688608015E-38 0.280259693E-42 0.000000000E+00 0.000000000E+00 0.000000000E+00 0.000000000E+00 0.000000000E+00 0.000000000E+00