<?xml version="1.0"?>
<VTKFile type="StructuredGrid">
<StructuredGrid WholeExtent="     0   100     0   100     0     0">
<Piece Extent="     0   100     0   100     0     0">
<Points>
<DataArray type="Float32" NumberOfComponents="3"/>
0.000000000E+00 0.000000000E+00 0.000000000E+00 0.199999996E-01 0.000000000E+00 0.000000000E+00 0.399999991E-01 0.000000000E+00 0.000000000E+00 0.599999987E-01 0.000000000E+00 0.000000000E+00 0.799999982E-01 0.000000000E+00 0.000000000E+00 0.100000001E+00 0.000000000E+00 0.000000000E+00 0.119999997E+00 0.000000000E+00 0.000000000E+00 0.140000001E+00 0.000000000E+00 0.000000000E+00 0.159999996E+00 0.000000000E+00 0.000000000E+00 0.180000007E+00 0.000000000E+00 0.000000000E+00 0.200000003E+00 0.000000000E+00 0.000000000E+00 0.219999999E+00 0.000000000E+00 0.000000000E+00 0.239999995E+00 0.000000000E+00 0.000000000E+00 0.259999990E+00 0.000000000E+00 0.000000000E+00 0.280000001E+00 0.000000000E+00 0.000000000E+00 0.300000012E+00 0.000000000E+00 0.000000000E+00 0.319999993E+00 0.000000000E+00 0.000000000E+00 0.340000004E+00 0.000000000E+00 0.000000000E+00 0.360000014E+00 0.000000000E+00 0.000000000E+00 0.379999995E+00 0.000000000E+00 0.000000000E+00 0.400000006E+00 0.000000000E+00 0.000000000E+00 0.419999987E+00 0.000000000E+00 0.000000000E+00 0.439999998E+00 0.000000000E+00 0.000000000E+00 0.460000008E+00 0.000000000E+00 0.000000000E+00 0.479999989E+00 0.000000000E+00 0.000000000E+00 0.500000000E+00 0.000000000E+00 0.000000000E+00 0.519999981E+00 0.000000000E+00 0.000000000E+00 0.540000021E+00 0.000000000E+00 0.000000000E+00 0.560000002E+00 0.000000000E+00 0.000000000E+00 0.579999983E+00 0.000000000E+00 0.000000000E+00 0.600000024E+00 0.000000000E+00 0.000000000E+00 0.620000005E+00 0.000000000E+00 0.000000000E+00 0.639999986E+00 0.000000000E+00 0.000000000E+00 0.660000026E+00 0.000000000E+00 0.000000000E+00 0.680000007E+00 0.000000000E+00 0.000000000E+00 0.699999988E+00 0.000000000E+00 0.000000000E+00 0.720000029E+00 0.000000000E+00 0.000000000E+00 0.740000010E+00 0.000000000E+00 0.000000000E+00 0.759999990E+00 0.000000000E+00 0.000000000E+00 0.779999971E+00 0.000000000E+00 0.000000000E+00 0.800000012E+00 0.000000000E+00 0.000000000E+00 0.819999993E+00 0.000000000E+00 0.000000000E+00 0.839999974E+00 0.000000000E+00 0.000000000E+00 0.860000014E+00 0.000000000E+00 0.000000000E+00 0.879999995E+00 0.000000000E+00 0.000000000E+00 0.899999976E+00 0.000000000E+00 0.000000000E+00 0.920000017E+00 0.000000000E+00 0.000000000E+00 0.939999998E+00 0.000000000E+00 0.000000000E+00 0.959999979E+00 0.000000000E+00 0.000000000E+00 0.980000019E+00 0.000000000E+00 0.000000000E+00 0.100000000E+01 0.000000000E+00 0.000000000E+00 0.101999998E+01 0.000000000E+00 0.000000000E+00 0.103999996E+01 0.000000000E+00 0.000000000E+00 0.105999994E+01 0.000000000E+00 0.000000000E+00 0.108000004E+01 0.000000000E+00 0.000000000E+00 0.110000002E+01 0.000000000E+00 0.000000000E+00 0.112000000E+01 0.000000000E+00 0.000000000E+00 0.113999999E+01 0.000000000E+00 0.000000000E+00 0.115999997E+01 0.000000000E+00 0.000000000E+00 0.117999995E+01 0.000000000E+00 0.000000000E+00 0.120000005E+01 0.000000000E+00 0.000000000E+00 0.122000003E+01 0.000000000E+00 0.000000000E+00 0.124000001E+01 0.000000000E+00 0.000000000E+00 0.125999999E+01 0.000000000E+00 0.000000000E+00 0.127999997E+01 0.000000000E+00 0.000000000E+00 0.129999995E+01 0.000000000E+00 0.000000000E+00 0.132000005E+01 0.000000000E+00 0.000000000E+00 0.134000003E+01 0.000000000E+00 0.000000000E+00 0.136000001E+01 0.000000000E+00 0.000000000E+00 0.138000000E+01 0.000000000E+00 0.000000000E+00 0.139999998E+01 0.000000000E+00 0.000000000E+00 0.141999996E+01 0.000000000E+00 0.000000000E+00 0.144000006E+01 0.000000000E+00 0.000000000E+00 0.146000004E+01 0.000000000E+00 0.000000000E+00 0.148000002E+01 0.000000000E+00 0.000000000E+00 0.150000000E+01 0.000000000E+00 0.000000000E+00 0.151999998E+01 0.000000000E+00 0.000000000E+00 0.153999996E+01 0.000000000E+00 0.000000000E+00 0.155999994E+01 0.000000000E+00 0.000000000E+00 0.158000004E+01 0.000000000E+00 0.000000000E+00 0.160000002E+01 0.000000000E+00 0.000000000E+00 0.162000000E+01 0.000000000E+00 0.000000000E+00 0.163999999E+01 0.000000000E+00 0.000000000E+00 0.165999997E+01 0.000000000E+00 0.000000000E+00 0.167999995E+01 0.000000000E+00 0.000000000E+00 0.170000005E+01 0.000000000E+00 0.000000000E+00 0.172000003E+01 0.000000000E+00 0.000000000E+00 0.174000001E+01 0.000000000E+00 0.000000000E+00 0.175999999E+01 0.000000000E+00 0.000000000E+00 0.177999997E+01 0.000000000E+00 0.000000000E+00 0.179999995E+01 0.000000000E+00 0.000000000E+00 0.182000005E+01 0.000000000E+00 0.000000000E+00 0.184000003E+01 0.000000000E+00 0.000000000E+00 0.186000001E+01 0.000000000E+00 0.000000000E+00 0.188000000E+01 0.000000000E+00 0.000000000E+00 0.189999998E+01 0.000000000E+00 0.000000000E+00 0.191999996E+01 0.000000000E+00 0.000000000E+00 0.194000006E+01 0.000000000E+00 0.000000000E+00 0.196000004E+01 0.000000000E+00 0.000000000E+00 0.198000002E+01 0.000000000E+00 0.000000000E+00 0.200000000E+01 0.000000000E+00 0.000000000E+00
0.000000000E+00 0.999999978E-02 0.000000000E+00 0.199999996E-01 0.999999978E-02 0.000000000E+00 0.399999991E-01 0.999999978E-02 0.000000000E+00 0.599999987E-01 0.999999978E-02 0.000000000E+00 0.799999982E-01 0.999999978E-02 0.000000000E+00 0.100000001E+00 0.999999978E-02 0.000000000E+00 0.119999997E+00 0.999999978E-02 0.000000000E+00 0.140000001E+00 0.999999978E-02 0.000000000E+00 0.159999996E+00 0.999999978E-02 0.000000000E+00 0.180000007E+00 0.999999978E-02 0.000000000E+00 0.200000003E+00 0.999999978E-02 0.000000000E+00 0.219999999E+00 0.999999978E-02 0.000000000E+00 0.239999995E+00 0.999999978E-02 0.000000000E+00 0.259999990E+00 0.999999978E-02 0.000000000E+00 0.280000001E+00 0.999999978E-02 0.000000000E+00 0.300000012E+00 0.999999978E-02 0.000000000E+00 0.319999993E+00 0.999999978E-02 0.000000000E+00 0.340000004E+00 0.999999978E-02 0.000000000E+00 0.360000014E+00 0.999999978E-02 0.000000000E+00 0.379999995E+00 0.999999978E-02 0.000000000E+00 0.400000006E+00 0.999999978E-02 0.000000000E+00 0.419999987E+00 0.999999978E-02 0.000000000E+00 0.439999998E+00 0.999999978E-02 0.000000000E+00 0.460000008E+00 0.999999978E-02 0.000000000E+00 0.479999989E+00 0.999999978E-02 0.000000000E+00 0.500000000E+00 0.999999978E-02 0.000000000E+00 0.519999981E+00 0.999999978E-02 0.000000000E+00 0.540000021E+00 0.999999978E-02 0.000000000E+00 0.560000002E+00 0.999999978E-02 0.000000000E+00 0.579999983E+00 0.999999978E-02 0.000000000E+00 0.600000024E+00 0.999999978E-02 0.000000000E+00 0.620000005E+00 0.999999978E-02 0.000000000E+00 0.639999986E+00 0.999999978E-02 0.000000000E+00 0.660000026E+00 0.999999978E-02 0.000000000E+00 0.680000007E+00 0.999999978E-02 0.000000000E+00 0.699999988E+00 0.999999978E-02 0.000000000E+00 0.720000029E+00 0.999999978E-02 0.000000000E+00 0.740000010E+00 0.999999978E-02 0.000000000E+00 0.759999990E+00 0.999999978E-02 0.000000000E+00 0.779999971E+00 0.999999978E-02 0.000000000E+00 0.800000012E+00 0.999999978E-02 0.000000000E+00 0.819999993E+00 0.999999978E-02 0.000000000E+00 0.839999974E+00 0.999999978E-02 0.000000000E+00 0.860000014E+00 0.999999978E-02 0.000000000E+00 0.879999995E+00 0.999999978E-02 0.000000000E+00 0.899999976E+00 0.999999978E-02 0.000000000E+00 0.920000017E+00 0.999999978E-02 0.000000000E+00 0.939999998E+00 0.999999978E-02 0.000000000E+00 0.959999979E+00 0.999999978E-02 0.000000000E+00 0.980000019E+00 0.999999978E-02 0.000000000E+00 0.100000000E+01 0.999999978E-02 0.000000000E+00 0.101999998E+01 0.999999978E-02 0.000000000E+00 0.103999996E+01 0.999999978E-02 0.000000000E+00 0.105999994E+01 0.999999978E-02 0.000000000E+00 0.108000004E+01 0.999999978E-02 0.000000000E+00 0.110000002E+01 0.999999978E-02 0.000000000E+00 0.112000000E+01 0.999999978E-02 0.000000000E+00 0.113999999E+01 0.999999978E-02 0.000000000E+00 0.115999997E+01 0.999999978E-02 0.000000000E+00 0.117999995E+01 0.999999978E-02 0.000000000E+00 0.120000005E+01 0.999999978E-02 0.000000000E+00 0.122000003E+01 0.999999978E-02 0.000000000E+00 0.124000001E+01 0.999999978E-02 0.000000000E+00 0.125999999E+01 0.999999978E-02 0.000000000E+00 0.127999997E+01 0.999999978E-02 0.000000000E+00 0.129999995E+01 0.999999978E-02 0.000000000E+00 0.132000005E+01 0.999999978E-02 0.000000000E+00 0.134000003E+01 0.999999978E-02 0.000000000E+00 0.136000001E+01 0.999999978E-02 0.000000000E+00 0.138000000E+01 0.999999978E-02 0.000000000E+00 0.139999998E+01 0.999999978E-02 0.000000000E+00 0.141999996E+01 0.999999978E-02 0.000000000E+00 0.144000006E+01 0.999999978E-02 0.000000000E+00 0.146000004E+01 0.999999978E-02 0.000000000E+00 0.148000002E+01 0.999999978E-02 0.000000000E+00 0.150000000E+01 0.999999978E-02 0.000000000E+00 0.151999998E+01 0.999999978E-02 0.000000000E+00 0.153999996E+01 0.999999978E-02 0.000000000E+00 0.155999994E+01 0.999999978E-02 0.000000000E+00 0.158000004E+01 0.999999978E-02 0.000000000E+00 0.160000002E+01 0.999999978E-02 0.000000000E+00 0.162000000E+01 0.999999978E-02 0.000000000E+00 0.163999999E+01 0.999999978E-02 0.000000000E+00 0.165999997E+01 0.999999978E-02 0.000000000E+00 0.167999995E+01 0.999999978E-02 0.000000000E+00 0.170000005E+01 0.999999978E-02 0.000000000E+00 0.172000003E+01 0.999999978E-02 0.000000000E+00 0.174000001E+01 0.999999978E-02 0.000000000E+00 0.175999999E+01 0.999999978E-02 0.000000000E+00 0.177999997E+01 0.999999978E-02 0.000000000E+00 0.179999995E+01 0.999999978E-02 0.000000000E+00 0.182000005E+01 0.999999978E-02 0.000000000E+00 0.184000003E+01 0.999999978E-02 0.000000000E+00 0.186000001E+01 0.999999978E-02 0.000000000E+00 0.188000000E+01 0.999999978E-02 0.000000000E+00 0.189999998E+01 0.999999978E-02 0.000000000E+00 0.191999996E+01 0.999999978E-02 0.000000000E+00 0.194000006E+01 0.999999978E-02 0.000000000E+00 0.196000004E+01 0.999999978E-02 0.000000000E+00 0.198000002E+01 0.999999978E-02 0.000000000E+00 0.200000000E+01 0.999999978E-02 0.000000000E+00
[...]
<CellData Scalars="Temperature, U, V">
<DataArray type="Float32" Name="Temp, K"/>
0.374991984E-07 0.138423189E-06 0.347408815E-06 0.701776855E-06 0.121937262E-05 0.189047432E-05 0.267577184E-05 0.351074027E-05 0.431526541E-05 0.500637043E-05 0.551142557E-05 0.577931951E-05 0.578764320E-05 0.554479448E-05 0.508695803E-05 0.447084403E-05 0.376381990E-05 0.303344450E-05 0.233832475E-05 0.172179534E-05 0.120914979E-05 0.808340985E-06 0.513344844E-06 0.308962882E-06 0.175781608E-06 0.979954606E-07 0.534249907E-07 0.284215531E-07 0.147190926E-07 0.740118100E-08 0.360279606E-08 0.169232828E-08 0.764284191E-09 0.330501015E-09 0.136215927E-09 0.532271553E-10 0.196006007E-10 0.675477512E-11 0.216087586E-11 0.635570481E-12 0.169913996E-12 0.407145326E-13 0.859287989E-14 0.156181345E-14 0.237196145E-15 0.300523816E-16 0.915756224E-15 0.362199609E-12 0.738616529E-10 0.104597317E-09 0.688064623E-12 0.228154931E-14 0.113966769E-16 0.606107660E-16 0.409896131E-15 0.231654109E-14 0.112752740E-13 0.483390014E-13 0.185752076E-12 0.648796121E-12 0.208354254E-11 0.621122077E-11 0.173284338E-10 0.455591120E-10 0.113565400E-09 0.269811701E-09 0.613809670E-09 0.134260136E-08 0.283391977E-08 0.579127324E-08 0.114916521E-07 0.222005916E-07 0.418567119E-07 0.771855966E-07 0.139492073E-06 0.247517875E-06 0.415810405E-06 0.662831553E-06 0.100467992E-05 0.145067702E-05 0.199861211E-05 0.263075640E-05 0.331188858E-05 0.399037208E-05 0.460279534E-05 0.508192625E-05 0.536686230E-05 0.541370309E-05 0.520452841E-05 0.475273964E-05 0.410315533E-05 0.332641139E-05 0.250809126E-05 0.173436820E-05 0.107695814E-05 0.580613516E-06 0.256310841E-06 0.823981381E-07 0.141936711E-07 0.919724569E-13
0.267827204E-06 0.960294301E-06 0.236105734E-05 0.470235091E-05 0.809473568E-05 0.124817552E-04 0.176291578E-04 0.231494505E-04 0.285554033E-04 0.333312746E-04 0.370084163E-04 0.392321999E-04 0.398096890E-04 0.387310210E-04 0.361625425E-04 0.324140856E-04 0.278873267E-04 0.230149726E-04 0.182015410E-04 0.137757070E-04 0.996108702E-05 0.686821249E-05 0.450579000E-05 0.280563791E-05 0.165376684E-05 0.953256063E-06 0.536336813E-06 0.293951416E-06 0.156583425E-06 0.808652345E-07 0.403750029E-07 0.194286471E-07 0.897900865E-08 0.396963706E-08 0.167131731E-08 0.666694644E-09 0.250494042E-09 0.880458068E-10 0.287209041E-10 0.861329844E-11 0.234804797E-11 0.573854874E-12 0.123576835E-12 0.229304202E-13 0.355778359E-14 0.444764772E-15 0.193254654E-14 0.746479701E-12 0.151935201E-09 0.215016754E-09 0.141418756E-11 0.470811702E-14 0.121231260E-15 0.929491499E-15 0.615374730E-14 0.340727406E-13 0.162587581E-12 0.683716321E-12 0.257802265E-11 0.883741084E-11 0.278550846E-10 0.814927847E-10 0.223064747E-09 0.575176906E-09 0.140536383E-08 0.327054694E-08 0.728198657E-08 0.155739883E-07 0.321068825E-07 0.640036930E-07 0.123719474E-06 0.232482435E-06 0.425644060E-06 0.760849559E-06 0.133031904E-05 0.227905434E-05 0.370129123E-05 0.571182545E-05 0.839371660E-05 0.117687359E-04 0.157700943E-04 0.202247174E-04 0.248517481E-04 0.292812492E-04 0.330932271E-04 0.358726065E-04 0.372715258E-04 0.370687376E-04 0.352142015E-04 0.318498096E-04 0.272995931E-04 0.220292332E-04 0.165785714E-04 0.114775194E-04 0.716029990E-05 0.389494380E-05 0.174467641E-05 0.573857221E-06 0.102506789E-06 0.656406028E-12
0.136597237E-05 0.477429103E-05 0.115281564E-04 0.226706597E-04 0.386910287E-04 0.593426776E-04 0.836055697E-04 0.109790679E-03 0.135758906E-03 0.159210933E-03 0.177998329E-03 0.190407110E-03 0.195374334E-03 0.192607986E-03 0.182597490E-03 0.166517071E-03 0.146040227E-03 0.123097125E-03 0.996151939E-04 0.772845815E-04 0.573850921E-04 0.406976142E-04 0.275051152E-04 0.176701269E-04 0.107611504E-04 0.639599375E-05 0.370379075E-05 0.208568349E-05 0.113970452E-05 0.602902901E-06 0.307934187E-06 0.151399234E-06 0.714129555E-07 0.321925242E-07 0.138090721E-07 0.560838842E-08 0.214426343E-08 0.766627650E-09 0.254306270E-09 0.775468231E-10 0.214958433E-10 0.534301423E-11 0.117060008E-11 0.221099587E-12 0.349416134E-13 0.443121729E-14 0.336346280E-14 0.115518240E-11 0.234554820E-09 0.331717182E-09 0.218249182E-11 0.737536321E-14 0.116246431E-14 0.931203119E-14 0.605315155E-13 0.329323157E-12 0.154505683E-11 0.639112374E-11 0.237120046E-10 0.799938726E-10 0.248136678E-09 0.714333259E-09 0.192346983E-08 0.487690333E-08 0.117104886E-07 0.267636917E-07 0.584726223E-07 0.122591331E-06 0.247479051E-06 0.482494613E-06 0.910924598E-06 0.166933671E-05 0.297580232E-05 0.517004901E-05 0.876926333E-05 0.145439590E-04 0.228965164E-04 0.342989952E-04 0.489990998E-04 0.668901193E-04 0.874114412E-04 0.109509783E-03 0.131682100E-03 0.152106470E-03 0.168848768E-03 0.180117597E-03 0.184526274E-03 0.181321433E-03 0.170534302E-03 0.153027155E-03 0.130415763E-03 0.104874562E-03 0.788422403E-04 0.546685442E-04 0.342598105E-04 0.187872774E-04 0.852324411E-05 0.285882629E-05 0.526688723E-06 0.332008965E-11
0.527548536E-05 0.180030584E-04 0.427373598E-04 0.830280478E-04 0.140492819E-03 0.214275933E-03 0.300968182E-03 0.394959556E-03 0.489130325E-03 0.575747516E-03 0.647427980E-03 0.698032964E-03 0.723384903E-03 0.721721619E-03 0.693841255E-03 0.642925035E-03 0.574068632E-03 0.493589905E-03 0.408213527E-03 0.324257329E-03 0.246941607E-03 0.179925541E-03 0.125129838E-03 0.828453049E-04 0.520697758E-04 0.318812781E-04 0.189855091E-04 0.109765469E-04 0.614881219E-05 0.332977424E-05 0.173871308E-05 0.872928808E-06 0.419999935E-06 0.192941769E-06 0.842690326E-07 0.348225129E-07 0.135381510E-07 0.491950347E-08 0.165807224E-08 0.513609655E-09 0.144617221E-09 0.365160575E-10 0.812898620E-11 0.156065720E-11 0.250829956E-12 0.323478698E-13 0.720672911E-14 0.159098841E-11 0.322082472E-09 0.455195631E-09 0.299751413E-11 0.108204131E-13 0.856988210E-14 0.681082659E-13 0.435391306E-12 0.233097439E-11 0.107668371E-10 0.438629619E-10 0.160306768E-09 0.532754674E-09 0.162783909E-08 0.461503680E-08 0.122337331E-07 0.305215266E-07 0.720707831E-07 0.161857315E-06 0.347190650E-06 0.713969598E-06 0.141217106E-05 0.269428870E-05 0.497119572E-05 0.889043804E-05 0.154421577E-04 0.260973666E-04 0.429819447E-04 0.690871966E-04 0.105547959E-03 0.153651796E-03 0.213632200E-03 0.284278882E-03 0.362718536E-03 0.444445264E-03 0.523634662E-03 0.593720353E-03 0.648158777E-03 0.681275269E-03 0.689058041E-03 0.669790083E-03 0.624404987E-03 0.556512619E-03 0.472055486E-03 0.378634897E-03 0.284557056E-03 0.197718968E-03 0.124495244E-03 0.688100699E-04 0.315913967E-04 0.107868373E-04 0.204336652E-05 0.126268553E-10
0.165273177E-04 0.551485900E-04 0.128830623E-03 0.247360585E-03 0.414992071E-03 0.629183894E-03 0.880545820E-03 0.115385221E-02 0.142984802E-02 0.168751483E-02 0.190647470E-02 0.206923671E-02 0.216305978E-02 0.218124059E-02 0.212371815E-02 0.199693465E-02 0.181296654E-02 0.158802606E-02 0.134050893E-02 0.108884438E-02 0.849451928E-03 0.635109376E-03 0.453977642E-03 0.309404539E-03 0.200473180E-03 0.126323706E-03 0.772948406E-04 0.458468348E-04 0.263101756E-04 0.145763443E-04 0.777706646E-05 0.398487600E-05 0.195465554E-05 0.914563373E-06 0.406489676E-06 0.170808718E-06 0.674840592E-07 0.249074485E-07 0.852323012E-08 0.267982903E-08 0.765778607E-09 0.196231864E-09 0.443379396E-10 0.864193266E-11 0.141064341E-11 0.184837429E-12 0.234937598E-13 0.205737445E-11 0.414911938E-09 0.585992033E-09 0.386437193E-11 0.177237578E-13 0.497572903E-13 0.389852349E-12 0.245433947E-11 0.129468788E-10 0.589450364E-10 0.236748926E-09 0.853127791E-09 0.279541035E-08 0.842003445E-08 0.235252973E-07 0.614323170E-07 0.150900519E-06 0.350597674E-06 0.774136197E-06 0.163121331E-05 0.329197201E-05 0.638304755E-05 0.119243732E-04 0.215151867E-04 0.375750642E-04 0.636405312E-04 0.104709739E-03 0.167615872E-03 0.261396402E-03 0.387976877E-03 0.549499528E-03 0.744436344E-03 0.966785941E-03 0.120588939E-02 0.144698797E-02 0.167250284E-02 0.186387321E-02 0.200370117E-02 0.207790243E-02 0.207755365E-02 0.200022152E-02 0.185055647E-02 0.164008269E-02 0.138612941E-02 0.111001637E-02 0.834600069E-03 0.581439992E-03 0.367949018E-03 0.204952681E-03 0.951566253E-04 0.330225193E-04 0.641298266E-05 0.386919073E-10
0.439241594E-04 0.143497047E-03 0.330152572E-03 0.626709370E-03 0.104238081E-02 0.157043326E-02 0.218853937E-02 0.286135194E-02 0.354460324E-02 0.419000117E-02 0.475029740E-02 0.518398313E-02 0.545925507E-02 0.555692473E-02 0.547208916E-02 0.521441875E-02 0.480700890E-02 0.428385427E-02 0.368615054E-02 0.305780349E-02 0.244067796E-02 0.187026826E-02 0.137243757E-02 0.961759011E-03 0.641672232E-03 0.415718328E-03 0.261145586E-03 0.158797717E-03 0.932982803E-04 0.528513228E-04 0.287975199E-04 0.150520473E-04 0.752381948E-05 0.358388024E-05 0.162026072E-05 0.692002061E-06 0.277696529E-06 0.104046109E-06 0.361269024E-07 0.115216601E-07 0.333883565E-08 0.867559857E-09 0.198770569E-09 0.392913549E-10 0.650626254E-11 0.865156471E-12 0.930942809E-13 0.256020530E-11 0.513471488E-09 0.724693583E-09 0.478922978E-11 0.391572727E-13 0.236701067E-12 0.182839160E-11 0.113499080E-10 0.590576615E-10 0.265290095E-09 0.105142617E-08 0.373871334E-08 0.120870034E-07 0.359127377E-07 0.989414204E-07 0.254651894E-06 0.616168904E-06 0.140923714E-05 0.306070547E-05 0.633818399E-05 0.125585684E-04 0.238826342E-04 0.437080671E-04 0.771627892E-04 0.131682580E-03 0.217632230E-03 0.348899106E-03 0.543355360E-03 0.823056500E-03 0.118819182E-02 0.163918862E-02 0.216640648E-02 0.274916273E-02 0.335641578E-02 0.394912669E-02 0.448398851E-02 0.491799321E-02 0.521319592E-02 0.534108421E-02 0.528599648E-02 0.504730735E-02 0.464007398E-02 0.409410335E-02 0.345138577E-02 0.276211719E-02 0.207944936E-02 0.145341479E-02 0.924692606E-03 0.519051333E-03 0.243558141E-03 0.857797058E-04 0.170296680E-04 0.999423808E-10
0.102221173E-03 0.327321584E-03 0.742246222E-03 0.139332365E-02 0.229726383E-02 0.343779568E-02 0.476758508E-02 0.621412834E-02 0.768808555E-02 0.909263734E-02 0.103327800E-01 0.113237612E-01 0.119981999E-01 0.123115052E-01 0.122454036E-01 0.118093295E-01 0.110395551E-01 0.999591313E-02 0.875618868E-02 0.740851369E-02 0.604243623E-02 0.473974412E-02 0.356636057E-02 0.256667752E-02 0.176131376E-02 0.117208879E-02 0.755280140E-03 0.470513216E-03 0.282851339E-03 0.163746983E-03 0.910763338E-04 0.485407363E-04 0.247153403E-04 0.119808765E-04 0.550745426E-05 0.238981761E-05 0.973684564E-06 0.370172188E-06 0.130352902E-06 0.421447268E-07 0.123775168E-07 0.325887717E-08 0.756518403E-09 0.151524404E-09 0.254276496E-10 0.342750654E-11 0.355458555E-12 0.311249485E-11 0.618228302E-09 0.871939410E-09 0.578065503E-11 0.113541467E-12 0.952442443E-12 0.725994221E-11 0.444846035E-10 0.228539979E-09 0.101376896E-08 0.396772437E-08 0.139313423E-07 0.444644392E-07 0.130387122E-06 0.354388646E-06 0.899382030E-06 0.214452348E-05 0.482999485E-05 0.103222583E-04 0.210150592E-04 0.408982451E-04 0.763128992E-04 0.136882765E-03 0.236568318E-03 0.394730421E-03 0.637024292E-03 0.995882205E-03 0.151030102E-02 0.222465792E-02 0.312732533E-02 0.420736568E-02 0.543124229E-02 0.674308138E-02 0.806839392E-02 0.932069775E-02 0.104100453E-01 0.112521909E-01 0.117772464E-01 0.119369263E-01 0.117096473E-01 0.111033581E-01 0.101557150E-01 0.893174764E-02 0.751884328E-02 0.601943349E-02 0.454136916E-02 0.318658259E-02 0.203904440E-02 0.115344825E-02 0.546740543E-03 0.195166009E-03 0.395049101E-04 0.224746402E-09
0.213314401E-03 0.670137058E-03 0.149867113E-02 0.278255600E-02 0.454704277E-02 0.675590662E-02 0.931757875E-02 0.120974807E-01 0.149335172E-01 0.176522247E-01 0.200839937E-01 0.220763180E-01 0.235047918E-01 0.242815856E-01 0.243614037E-01 0.237447750E-01 0.224783942E-01 0.206521247E-01 0.183923282E-01 0.158514176E-01 0.131940423E-01 0.105811423E-01 0.815381110E-02 0.601960300E-02 0.424376363E-02 0.289798668E-02 0.191408326E-02 0.122077705E-02 0.750473351E-03 0.443786994E-03 0.251859601E-03 0.136822695E-03 0.709394517E-04 0.349845068E-04 0.163466721E-04 0.720429580E-05 0.297909151E-05 0.114877344E-05 0.410091133E-06 0.134349435E-06 0.399672579E-07 0.106562803E-07 0.250470911E-08 0.507925646E-09 0.863039432E-10 0.117810518E-10 0.121919608E-11 0.374655515E-11 0.729692251E-09 0.102842679E-08 0.685304634E-11 0.355386727E-12 0.332254081E-11 0.250159442E-10 0.151444052E-09 0.768834330E-09 0.337022921E-08 0.130342821E-07 0.452161721E-07 0.142546014E-06 0.412726507E-06 0.110712404E-05 0.277149115E-05 0.651448045E-05 0.144532723E-04 0.304033656E-04 0.608736882E-04 0.116399271E-03 0.213184845E-03 0.374938856E-03 0.634657103E-03 0.103598076E-02 0.163364341E-02 0.249246741E-02 0.368442247E-02 0.528345210E-02 0.724077644E-02 0.951117743E-02 0.120069301E-01 0.146027850E-01 0.171465874E-01 0.194736756E-01 0.214228015E-01 0.228513777E-01 0.236484800E-01 0.237446986E-01 0.231182706E-01 0.217978172E-01 0.198613573E-01 0.174319893E-01 0.146697946E-01 0.117603131E-01 0.889912993E-02 0.627300190E-02 0.403883960E-02 0.230264128E-02 0.110211829E-02 0.398281350E-03 0.819988709E-04 0.450844029E-09
0.406566804E-03 0.125410024E-02 0.276737707E-02 0.508267758E-02 0.823028944E-02 0.121354805E-01 0.166339166E-01 0.214954522E-01 0.264507942E-01 0.312171429E-01 0.355207212E-01 0.391152464E-01 0.417965911E-01 0.434139371E-01 0.438780040E-01 0.431665741E-01 0.413270369E-01 0.384753942E-01 0.347905681E-01 0.305031966E-01 0.258781444E-01 0.211915318E-01 0.167041589E-01 0.126352059E-01 0.914079417E-02 0.639938004E-02 0.432891212E-02 0.282478007E-02 0.177485193E-02 0.107159116E-02 0.620293082E-03 0.343359279E-03 0.181223819E-03 0.908960283E-04 0.431587323E-04 0.193132619E-04 0.810319852E-05 0.316833120E-05 0.114616932E-05 0.380329965E-06 0.114553110E-06 0.309133945E-07 0.735255679E-08 0.150856871E-08 0.259338440E-09 0.358198089E-10 0.373308112E-11 0.454082822E-11 0.848421167E-09 0.119491617E-08 0.803431714E-11 0.106352535E-11 0.102451650E-10 0.762625726E-10 0.456521820E-09 0.229184183E-08 0.993431470E-08 0.379868865E-07 0.130259309E-06 0.405787830E-06 0.116053309E-05 0.307346363E-05 0.759158820E-05 0.175955684E-04 0.384662526E-04 0.796676104E-04 0.156915165E-03 0.294892932E-03 0.530310965E-03 0.914864650E-03 0.151741283E-02 0.242448389E-02 0.373814488E-02 0.557041075E-02 0.803378690E-02 0.112282149E-01 0.150189651E-01 0.192849319E-01 0.238372497E-01 0.284348223E-01 0.328069739E-01 0.366790481E-01 0.397972353E-01 0.419497043E-01 0.429826602E-01 0.428111739E-01 0.414247215E-01 0.388888903E-01 0.353427902E-01 0.309929010E-01 0.261021685E-01 0.209744629E-01 0.159326531E-01 0.112902177E-01 0.731748343E-02 0.420526927E-02 0.203181454E-02 0.742591335E-03 0.155162095E-03 0.822312385E-09
0.718161929E-03 0.217652367E-02 0.474107964E-02 0.861423463E-02 0.138189532E-01 0.202116948E-01 0.275156461E-01 0.353632346E-01 0.433390178E-01 0.510174818E-01 0.579934753E-01 0.639050305E-01 0.684501231E-01 0.713986084E-01 0.726013184E-01 0.719970614E-01 0.696178526E-01 0.655915961E-01 0.601404980E-01 0.535728931E-01 0.462661982E-01 0.386396870E-01 0.311178565E-01 0.240885299E-01 0.178621616E-01 0.128082205E-01 0.886689592E-02 0.591607438E-02 0.379720214E-02 0.233975751E-02 0.138090632E-02 0.778630609E-03 0.418227661E-03 0.213290259E-03 0.102885802E-03 0.467365608E-04 0.198906982E-04 0.788355555E-05 0.288917136E-05 0.970699830E-06 0.295890942E-06 0.807807368E-07 0.194316208E-07 0.403140987E-08 0.700699054E-09 0.978483197E-10 0.102927762E-10 0.567180070E-11 0.975028613E-09 0.137223966E-08 0.938099945E-11 0.293163020E-11 0.283636899E-10 0.208908557E-09 0.123747756E-08 0.614726092E-08 0.263637023E-07 0.997206229E-07 0.338155672E-06 0.104136075E-05 0.294277515E-05 0.769653434E-05 0.187631540E-04 0.428935418E-04 0.924199485E-04 0.188504244E-03 0.365335145E-03 0.674981275E-03 0.119221734E-02 0.201819418E-02 0.328145712E-02 0.513465703E-02 0.774556492E-02 0.112817241E-01 0.158893336E-01 0.216684733E-01 0.283217877E-01 0.355911553E-01 0.431269966E-01 0.505216643E-01 0.573487170E-01 0.632011965E-01 0.677240193E-01 0.706379935E-01 0.717555359E-01 0.709892809E-01 0.683551133E-01 0.639721081E-01 0.580588765E-01 0.509270504E-01 0.429695435E-01 0.346427225E-01 0.264388155E-01 0.188468341E-01 0.123022012E-01 0.712790247E-02 0.347574311E-02 0.128365471E-02 0.271677680E-03 0.138476530E-08
0.118964026E-02 0.354424329E-02 0.762367668E-02 0.137033565E-01 0.217726212E-01 0.315735266E-01 0.426647514E-01 0.544924289E-01 0.664549917E-01 0.779550374E-01 0.884369686E-01 0.974116325E-01 0.104471721E+00 0.109301202E+00 0.111682005E+00 0.111500517E+00 0.108754657E+00 0.103561237E+00 0.961614624E-01 0.869209096E-01 0.763192922E-01 0.649256781E-01 0.533569567E-01 0.422213227E-01 0.320543051E-01 0.235201027E-01 0.166507978E-01 0.113523221E-01 0.743956678E-02 0.467641512E-02 0.281306240E-02 0.161521684E-02 0.882695022E-03 0.457604678E-03 0.224198346E-03 0.103358085E-03 0.446089798E-04 0.179174458E-04 0.665016296E-05 0.226151951E-05 0.697405653E-06 0.192536930E-06 0.468182897E-07 0.981627757E-08 0.172394898E-08 0.243224108E-09 0.258309468E-10 0.750279960E-11 0.111019161E-08 0.156130864E-08 0.110045532E-10 0.741040736E-11 0.714090106E-10 0.520797405E-09 0.305468206E-08 0.150239110E-07 0.637823163E-07 0.238756911E-06 0.800967882E-06 0.243918316E-05 0.681288884E-05 0.176017838E-04 0.423626698E-04 0.955405631E-04 0.202935786E-03 0.407726067E-03 0.777735549E-03 0.141302182E-02 0.245211856E-02 0.407458749E-02 0.649720384E-02 0.996140204E-02 0.147107420E-01 0.209592078E-01 0.288536400E-01 0.384361818E-01 0.491464101E-01 0.605154224E-01 0.719723329E-01 0.829019994E-01 0.927023441E-01 0.100832559E+00 0.106847733E+00 0.110419735E+00 0.111347079E+00 0.109557942E+00 0.105108716E+00 0.981827080E-01 0.890873373E-01 0.782505423E-01 0.662121102E-01 0.536075644E-01 0.411377512E-01 0.295195468E-01 0.194155294E-01 0.113442419E-01 0.558211468E-02 0.208173878E-02 0.445512531E-03 0.218007279E-08
0.186593633E-02 0.546696596E-02 0.116153676E-01 0.206542443E-01 0.324939191E-01 0.466984585E-01 0.625978708E-01 0.793989301E-01 0.962772146E-01 0.112443782E+00 0.127187014E+00 0.139894664E+00 0.150062934E+00 0.157298088E+00 0.161316663E+00 0.161947772E+00 0.159139693E+00 0.152971551E+00 0.143667638E+00 0.131610274E+00 0.117343977E+00 0.101562962E+00 0.850746483E-01 0.687361360E-01 0.533685237E-01 0.400348566E-01 0.289616119E-01 0.201648716E-01 0.134857371E-01 0.864409748E-02 0.529796258E-02 0.309681729E-02 0.172139111E-02 0.906933041E-03 0.451204396E-03 0.211054532E-03 0.923531989E-04 0.375815871E-04 0.141225637E-04 0.485961618E-05 0.151555878E-05 0.422942918E-06 0.103917557E-06 0.220081553E-07 0.390315602E-08 0.556004909E-09 0.595970148E-10 0.107188815E-10 0.125466337E-08 0.176312320E-08 0.131121754E-10 0.172616262E-10 0.165234479E-09 0.119407884E-08 0.693916924E-08 0.338086892E-07 0.142148579E-06 0.526812016E-06 0.174904744E-05 0.526886834E-05 0.145499598E-04 0.371440583E-04 0.882749737E-04 0.196453810E-03 0.411458372E-03 0.814495725E-03 0.152949966E-02 0.273335935E-02 0.466173189E-02 0.760631543E-02 0.118996790E-01 0.178852230E-01 0.258728303E-01 0.360847339E-01 0.486001633E-01 0.633100271E-01 0.792816430E-01 0.957639068E-01 0.111920461E+00 0.126913607E+00 0.139975607E+00 0.150458500E+00 0.157861784E+00 0.161841840E+00 0.162210256E+00 0.158927813E+00 0.152098477E+00 0.141968489E+00 0.128927991E+00 0.113515429E+00 0.964177698E-01 0.784623772E-01 0.605892241E-01 0.437943414E-01 0.290377270E-01 0.171138886E-01 0.849728659E-02 0.319804205E-02 0.691045425E-03 0.324186344E-08