<?xml version="1.0"?>
<VTKFile type="StructuredGrid">
<StructuredGrid WholeExtent="     0   100     0   100     0     0">
<Piece Extent="     0   100     0   100     0     0">
<Points>
<DataArray type="Float32" NumberOfComponents="3"/>
0.000000000E+00 0.000000000E+00 0.000000000E+00 0.199999996E-01 0.000000000E+00 0.000000000E+00 0.399999991E-01 0.000000000E+00 0.000000000E+00 0.599999987E-01 0.000000000E+00 0.000000000E+00 0.799999982E-01 0.000000000E+00 0.000000000E+00 0.100000001E+00 0.000000000E+00 0.000000000E+00 0.119999997E+00 0.000000000E+00 0.000000000E+00 0.140000001E+00 0.000000000E+00 0.000000000E+00 0.159999996E+00 0.000000000E+00 0.000000000E+00 0.180000007E+00 0.000000000E+00 0.000000000E+00 0.200000003E+00 0.000000000E+00 0.000000000E+00 0.219999999E+00 0.000000000E+00 0.000000000E+00 0.239999995E+00 0.000000000E+00 0.000000000E+00 0.259999990E+00 0.000000000E+00 0.000000000E+00 0.280000001E+00 0.000000000E+00 0.000000000E+00 0.300000012E+00 0.000000000E+00 0.000000000E+00 0.319999993E+00 0.000000000E+00 0.000000000E+00 0.340000004E+00 0.000000000E+00 0.000000000E+00 0.360000014E+00 0.000000000E+00 0.000000000E+00 0.379999995E+00 0.000000000E+00 0.000000000E+00 0.400000006E+00 0.000000000E+00 0.000000000E+00 0.419999987E+00 0.000000000E+00 0.000000000E+00 0.439999998E+00 0.000000000E+00 0.000000000E+00 0.460000008E+00 0.000000000E+00 0.000000000E+00 0.479999989E+00 0.000000000E+00 0.000000000E+00 0.500000000E+00 0.000000000E+00 0.000000000E+00 0.519999981E+00 0.000000000E+00 0.000000000E+00 0.540000021E+00 0.000000000E+00 0.000000000E+00 0.560000002E+00 0.000000000E+00 0.000000000E+00 0.579999983E+00 0.000000000E+00 0.000000000E+00 0.600000024E+00 0.000000000E+00 0.000000000E+00 0.620000005E+00 0.000000000E+00 0.000000000E+00 0.639999986E+00 0.000000000E+00 0.000000000E+00 0.660000026E+00 0.000000000E+00 0.000000000E+00 0.680000007E+00 0.000000000E+00 0.000000000E+00 0.699999988E+00 0.000000000E+00 0.000000000E+00 0.720000029E+00 0.000000000E+00 0.000000000E+00 0.740000010E+00 0.000000000E+00 0.000000000E+00 0.759999990E+00 0.000000000E+00 0.000000000E+00 0.779999971E+00 0.000000000E+00 0.000000000E+00 0.800000012E+00 0.000000000E+00 0.000000000E+00 0.819999993E+00 0.000000000E+00 0.000000000E+00 0.839999974E+00 0.000000000E+00 0.000000000E+00 0.860000014E+00 0.000000000E+00 0.000000000E+00 0.879999995E+00 0.000000000E+00 0.000000000E+00 0.899999976E+00 0.000000000E+00 0.000000000E+00 0.920000017E+00 0.000000000E+00 0.000000000E+00 0.939999998E+00 0.000000000E+00 0.000000000E+00 0.959999979E+00 0.000000000E+00 0.000000000E+00 0.980000019E+00 0.000000000E+00 0.000000000E+00 0.100000000E+01 0.000000000E+00 0.000000000E+00 0.101999998E+01 0.000000000E+00 0.000000000E+00 0.103999996E+01 0.000000000E+00 0.000000000E+00 0.105999994E+01 0.000000000E+00 0.000000000E+00 0.108000004E+01 0.000000000E+00 0.000000000E+00 0.110000002E+01 0.000000000E+00 0.000000000E+00 0.112000000E+01 0.000000000E+00 0.000000000E+00 0.113999999E+01 0.000000000E+00 0.000000000E+00 0.115999997E+01 0.000000000E+00 0.000000000E+00 0.117999995E+01 0.000000000E+00 0.000000000E+00 0.120000005E+01 0.000000000E+00 0.000000000E+00 0.122000003E+01 0.000000000E+00 0.000000000E+00 0.124000001E+01 0.000000000E+00 0.000000000E+00 0.125999999E+01 0.000000000E+00 0.000000000E+00 0.127999997E+01 0.000000000E+00 0.000000000E+00 0.129999995E+01 0.000000000E+00 0.000000000E+00 0.132000005E+01 0.000000000E+00 0.000000000E+00 0.134000003E+01 0.000000000E+00 0.000000000E+00 0.136000001E+01 0.000000000E+00 0.000000000E+00 0.138000000E+01 0.000000000E+00 0.000000000E+00 0.139999998E+01 0.000000000E+00 0.000000000E+00 0.141999996E+01 0.000000000E+00 0.000000000E+00 0.144000006E+01 0.000000000E+00 0.000000000E+00 0.146000004E+01 0.000000000E+00 0.000000000E+00 0.148000002E+01 0.000000000E+00 0.000000000E+00 0.150000000E+01 0.000000000E+00 0.000000000E+00 0.151999998E+01 0.000000000E+00 0.000000000E+00 0.153999996E+01 0.000000000E+00 0.000000000E+00 0.155999994E+01 0.000000000E+00 0.000000000E+00 0.158000004E+01 0.000000000E+00 0.000000000E+00 0.160000002E+01 0.000000000E+00 0.000000000E+00 0.162000000E+01 0.000000000E+00 0.000000000E+00 0.163999999E+01 0.000000000E+00 0.000000000E+00 0.165999997E+01 0.000000000E+00 0.000000000E+00 0.167999995E+01 0.000000000E+00 0.000000000E+00 0.170000005E+01 0.000000000E+00 0.000000000E+00 0.172000003E+01 0.000000000E+00 0.000000000E+00 0.174000001E+01 0.000000000E+00 0.000000000E+00 0.175999999E+01 0.000000000E+00 0.000000000E+00 0.177999997E+01 0.000000000E+00 0.000000000E+00 0.179999995E+01 0.000000000E+00 0.000000000E+00 0.182000005E+01 0.000000000E+00 0.000000000E+00 0.184000003E+01 0.000000000E+00 0.000000000E+00 0.186000001E+01 0.000000000E+00 0.000000000E+00 0.188000000E+01 0.000000000E+00 0.000000000E+00 0.189999998E+01 0.000000000E+00 0.000000000E+00 0.191999996E+01 0.000000000E+00 0.000000000E+00 0.194000006E+01 0.000000000E+00 0.000000000E+00 0.196000004E+01 0.000000000E+00 0.000000000E+00 0.198000002E+01 0.000000000E+00 0.000000000E+00 0.200000000E+01 0.000000000E+00 0.000000000E+00
0.000000000E+00 0.999999978E-02 0.000000000E+00 0.199999996E-01 0.999999978E-02 0.000000000E+00 0.399999991E-01 0.999999978E-02 0.000000000E+00 0.599999987E-01 0.999999978E-02 0.000000000E+00 0.799999982E-01 0.999999978E-02 0.000000000E+00 0.100000001E+00 0.999999978E-02 0.000000000E+00 0.119999997E+00 0.999999978E-02 0.000000000E+00 0.140000001E+00 0.999999978E-02 0.000000000E+00 0.159999996E+00 0.999999978E-02 0.000000000E+00 0.180000007E+00 0.999999978E-02 0.000000000E+00 0.200000003E+00 0.999999978E-02 0.000000000E+00 0.219999999E+00 0.999999978E-02 0.000000000E+00 0.239999995E+00 0.999999978E-02 0.000000000E+00 0.259999990E+00 0.999999978E-02 0.000000000E+00 0.280000001E+00 0.999999978E-02 0.000000000E+00 0.300000012E+00 0.999999978E-02 0.000000000E+00 0.319999993E+00 0.999999978E-02 0.000000000E+00 0.340000004E+00 0.999999978E-02 0.000000000E+00 0.360000014E+00 0.999999978E-02 0.000000000E+00 0.379999995E+00 0.999999978E-02 0.000000000E+00 0.400000006E+00 0.999999978E-02 0.000000000E+00 0.419999987E+00 0.999999978E-02 0.000000000E+00 0.439999998E+00 0.999999978E-02 0.000000000E+00 0.460000008E+00 0.999999978E-02 0.000000000E+00 0.479999989E+00 0.999999978E-02 0.000000000E+00 0.500000000E+00 0.999999978E-02 0.000000000E+00 0.519999981E+00 0.999999978E-02 0.000000000E+00 0.540000021E+00 0.999999978E-02 0.000000000E+00 0.560000002E+00 0.999999978E-02 0.000000000E+00 0.579999983E+00 0.999999978E-02 0.000000000E+00 0.600000024E+00 0.999999978E-02 0.000000000E+00 0.620000005E+00 0.999999978E-02 0.000000000E+00 0.639999986E+00 0.999999978E-02 0.000000000E+00 0.660000026E+00 0.999999978E-02 0.000000000E+00 0.680000007E+00 0.999999978E-02 0.000000000E+00 0.699999988E+00 0.999999978E-02 0.000000000E+00 0.720000029E+00 0.999999978E-02 0.000000000E+00 0.740000010E+00 0.999999978E-02 0.000000000E+00 0.759999990E+00 0.999999978E-02 0.000000000E+00 0.779999971E+00 0.999999978E-02 0.000000000E+00 0.800000012E+00 0.999999978E-02 0.000000000E+00 0.819999993E+00 0.999999978E-02 0.000000000E+00 0.839999974E+00 0.999999978E-02 0.000000000E+00 0.860000014E+00 0.999999978E-02 0.000000000E+00 0.879999995E+00 0.999999978E-02 0.000000000E+00 0.899999976E+00 0.999999978E-02 0.000000000E+00 0.920000017E+00 0.999999978E-02 0.000000000E+00 0.939999998E+00 0.999999978E-02 0.000000000E+00 0.959999979E+00 0.999999978E-02 0.000000000E+00 0.980000019E+00 0.999999978E-02 0.000000000E+00 0.100000000E+01 0.999999978E-02 0.000000000E+00 0.101999998E+01 0.999999978E-02 0.000000000E+00 0.103999996E+01 0.999999978E-02 0.000000000E+00 0.105999994E+01 0.999999978E-02 0.000000000E+00 0.108000004E+01 0.999999978E-02 0.000000000E+00 0.110000002E+01 0.999999978E-02 0.000000000E+00 0.112000000E+01 0.999999978E-02 0.000000000E+00 0.113999999E+01 0.999999978E-02 0.000000000E+00 0.115999997E+01 0.999999978E-02 0.000000000E+00 0.117999995E+01 0.999999978E-02 0.000000000E+00 0.120000005E+01 0.999999978E-02 0.000000000E+00 0.122000003E+01 0.999999978E-02 0.000000000E+00 0.124000001E+01 0.999999978E-02 0.000000000E+00 0.125999999E+01 0.999999978E-02 0.000000000E+00 0.127999997E+01 0.999999978E-02 0.000000000E+00 0.129999995E+01 0.999999978E-02 0.000000000E+00 0.132000005E+01 0.999999978E-02 0.000000000E+00 0.134000003E+01 0.999999978E-02 0.000000000E+00 0.136000001E+01 0.999999978E-02 0.000000000E+00 0.138000000E+01 0.999999978E-02 0.000000000E+00 0.139999998E+01 0.999999978E-02 0.000000000E+00 0.141999996E+01 0.999999978E-02 0.000000000E+00 0.144000006E+01 0.999999978E-02 0.000000000E+00 0.146000004E+01 0.999999978E-02 0.000000000E+00 0.148000002E+01 0.999999978E-02 0.000000000E+00 0.150000000E+01 0.999999978E-02 0.000000000E+00 0.151999998E+01 0.999999978E-02 0.000000000E+00 0.153999996E+01 0.999999978E-02 0.000000000E+00 0.155999994E+01 0.999999978E-02 0.000000000E+00 0.158000004E+01 0.999999978E-02 0.000000000E+00 0.160000002E+01 0.999999978E-02 0.000000000E+00 0.162000000E+01 0.999999978E-02 0.000000000E+00 0.163999999E+01 0.999999978E-02 0.000000000E+00 0.165999997E+01 0.999999978E-02 0.000000000E+00 0.167999995E+01 0.999999978E-02 0.000000000E+00 0.170000005E+01 0.999999978E-02 0.000000000E+00 0.172000003E+01 0.999999978E-02 0.000000000E+00 0.174000001E+01 0.999999978E-02 0.000000000E+00 0.175999999E+01 0.999999978E-02 0.000000000E+00 0.177999997E+01 0.999999978E-02 0.000000000E+00 0.179999995E+01 0.999999978E-02 0.000000000E+00 0.182000005E+01 0.999999978E-02 0.000000000E+00 0.184000003E+01 0.999999978E-02 0.000000000E+00 0.186000001E+01 0.999999978E-02 0.000000000E+00 0.188000000E+01 0.999999978E-02 0.000000000E+00 0.189999998E+01 0.999999978E-02 0.000000000E+00 0.191999996E+01 0.999999978E-02 0.000000000E+00 0.194000006E+01 0.999999978E-02 0.000000000E+00 0.196000004E+01 0.999999978E-02 0.000000000E+00 0.198000002E+01 0.999999978E-02 0.000000000E+00 0.200000000E+01 0.999999978E-02 0.000000000E+00
[...]
<CellData Scalars="Temperature, U, V">
<DataArray type="Float32" Name="Temp, K"/>
0.244098228E-04 0.604429260E-04 0.109296983E-03 0.170578554E-03 0.242422699E-03 0.321735657E-03 0.404524442E-03 0.486275967E-03 0.562351255E-03 0.628365786E-03 0.680528989E-03 0.715922739E-03 0.732703251E-03 0.730216445E-03 0.709018845E-03 0.670807087E-03 0.618258957E-03 0.554799568E-03 0.484310323E-03 0.410805980E-03 0.338108395E-03 0.269551412E-03 0.207746853E-03 0.154438589E-03 0.110460838E-03 0.778024405E-04 0.538854001E-04 0.366376335E-04 0.244095936E-04 0.159026058E-04 0.101071892E-04 0.625012808E-05 0.374907108E-05 0.217381353E-05 0.121350945E-05 0.649186063E-06 0.331015656E-06 0.159852121E-06 0.725611429E-07 0.306818748E-07 0.119532944E-07 0.423290070E-08 0.133939537E-08 0.370386610E-09 0.868644115E-10 0.165509620E-10 0.239628413E-11 0.262066058E-12 0.138409388E-10 0.195398801E-10 0.130865330E-12 0.818662358E-12 0.582346020E-11 0.314759226E-10 0.138198342E-09 0.514493559E-09 0.167351333E-08 0.486273999E-08 0.128395445E-07 0.312255857E-07 0.707169221E-07 0.150490635E-06 0.303210186E-06 0.582091161E-06 0.107054984E-05 0.189501816E-05 0.324159646E-05 0.537728556E-05 0.867669951E-05 0.136552626E-04 0.210101643E-04 0.316705227E-04 0.468586077E-04 0.681643724E-04 0.976360461E-04 0.137890194E-03 0.187521393E-03 0.246128388E-03 0.312433520E-03 0.384256564E-03 0.458589348E-03 0.531768485E-03 0.599729945E-03 0.658320496E-03 0.703636382E-03 0.732359651E-03 0.742056232E-03 0.731422624E-03 0.700445264E-03 0.650470203E-03 0.584159803E-03 0.505350647E-03 0.418799318E-03 0.329830335E-03 0.243908187E-03 0.166156111E-03 0.100854166E-03 0.509615202E-04 0.177235888E-04 0.203840972E-09
0.102469377E-03 0.249347941E-03 0.445098034E-03 0.688123226E-03 0.971483649E-03 0.128392875E-02 0.161111809E-02 0.193692057E-02 0.224469905E-02 0.251851440E-02 0.274419249E-02 0.291021657E-02 0.300841662E-02 0.303443102E-02 0.298793544E-02 0.287261070E-02 0.269586244E-02 0.246829190E-02 0.220293389E-02 0.191430608E-02 0.161732780E-02 0.132619613E-02 0.105332327E-02 0.808455865E-03 0.598086102E-03 0.434869056E-03 0.310333708E-03 0.217015302E-03 0.148447565E-03 0.991307825E-04 0.644781321E-04 0.407441512E-04 0.249394780E-04 0.147370238E-04 0.837408697E-05 0.455515601E-05 0.235944071E-05 0.115651153E-05 0.532492550E-06 0.228266885E-06 0.901250274E-07 0.323380718E-07 0.103682458E-07 0.290575430E-08 0.690918822E-09 0.133553141E-09 0.196320460E-10 0.200354707E-11 0.281234636E-10 0.396110922E-10 0.764780708E-12 0.682228536E-11 0.478000035E-10 0.254703564E-09 0.110330667E-08 0.405459932E-08 0.130233264E-07 0.373734856E-07 0.974553060E-07 0.234016014E-06 0.523082292E-06 0.109807263E-05 0.218091486E-05 0.412379450E-05 0.746284559E-05 0.129846294E-04 0.218057103E-04 0.354648619E-04 0.560269327E-04 0.861964654E-04 0.129438748E-03 0.190105027E-03 0.273558748E-03 0.386298867E-03 0.536076084E-03 0.731998647E-03 0.964077364E-03 0.122761237E-02 0.151452480E-02 0.181368471E-02 0.211157207E-02 0.239319657E-02 0.264317775E-02 0.284687639E-02 0.299148913E-02 0.306702987E-02 0.306710508E-02 0.298949890E-02 0.283647073E-02 0.261479872E-02 0.233550649E-02 0.201333314E-02 0.166589557E-02 0.131256378E-02 0.973105605E-03 0.666134933E-03 0.407432730E-03 0.208259997E-03 0.738493836E-04 0.813415113E-09
0.331597548E-03 0.794726540E-03 0.140254991E-02 0.214981288E-02 0.301587349E-02 0.396822812E-02 0.496621104E-02 0.596459256E-02 0.691693788E-02 0.777859706E-02 0.850928668E-02 0.907521322E-02 0.945076346E-02 0.961973611E-02 0.957609341E-02 0.932426192E-02 0.887889229E-02 0.826409552E-02 0.751209585E-02 0.666131452E-02 0.575392460E-02 0.483298488E-02 0.393935107E-02 0.310865045E-02 0.236868043E-02 0.177059334E-02 0.129666307E-02 0.928919762E-03 0.649882655E-03 0.443162076E-03 0.293908757E-03 0.189104670E-03 0.117704032E-03 0.706402861E-04 0.407225016E-04 0.224500436E-04 0.117747795E-04 0.583969586E-05 0.271878434E-05 0.117790887E-05 0.469866336E-06 0.170304588E-06 0.551567680E-07 0.156174522E-07 0.375313602E-08 0.733634375E-09 0.109138157E-09 0.110462282E-10 0.431819615E-10 0.603645120E-10 0.391773289E-11 0.384869740E-10 0.266443728E-09 0.140405743E-08 0.601892136E-08 0.219007656E-07 0.696717279E-07 0.198051012E-06 0.511537792E-06 0.121642324E-05 0.269163684E-05 0.559064028E-05 0.109791818E-04 0.205111137E-04 0.366408094E-04 0.628659836E-04 0.103990031E-03 0.166387079E-03 0.258249580E-03 0.389792462E-03 0.573388417E-03 0.823605398E-03 0.115712162E-02 0.159249641E-02 0.214978238E-02 0.284997607E-02 0.365028344E-02 0.452798279E-02 0.545145897E-02 0.638217339E-02 0.727728335E-02 0.809259992E-02 0.878559984E-02 0.931822974E-02 0.965937506E-02 0.978685170E-02 0.968884304E-02 0.936486572E-02 0.882610586E-02 0.809525978E-02 0.720570469E-02 0.620017387E-02 0.512874546E-02 0.404612953E-02 0.300833676E-02 0.206871890E-02 0.127345929E-02 0.656750286E-03 0.236113032E-03 0.248421683E-08
0.842050475E-03 0.198839791E-02 0.347004225E-02 0.527292956E-02 0.734773232E-02 0.961956289E-02 0.119970441E-01 0.143803926E-01 0.166683551E-01 0.187639911E-01 0.205793828E-01 0.220393706E-01 0.230844710E-01 0.236730780E-01 0.237830412E-01 0.234126151E-01 0.225807801E-01 0.213267822E-01 0.197088029E-01 0.178015530E-01 0.156926494E-01 0.134777389E-01 0.112544568E-01 0.911560655E-02 0.714215124E-02 0.548200449E-02 0.411657197E-02 0.301974220E-02 0.216030097E-02 0.150434370E-02 0.101750519E-02 0.666838430E-03 0.422262703E-03 0.257526961E-03 0.150702486E-03 0.842540176E-04 0.447737875E-04 0.224807973E-04 0.105887902E-04 0.463857032E-05 0.187005378E-05 0.684825693E-06 0.224056379E-06 0.640874376E-07 0.155608397E-07 0.307426640E-08 0.462472366E-09 0.471096495E-10 0.600812039E-10 0.822049998E-10 0.165404999E-10 0.165346847E-09 0.113205945E-08 0.590348304E-08 0.250555861E-07 0.902889923E-07 0.284495883E-06 0.800986811E-06 0.204867933E-05 0.482265750E-05 0.105590070E-04 0.216879762E-04 0.420895558E-04 0.776409142E-04 0.136826726E-03 0.231363389E-03 0.376769895E-03 0.592801662E-03 0.903658802E-03 0.133787643E-02 0.192782492E-02 0.270876288E-02 0.371742924E-02 0.499019492E-02 0.656086160E-02 0.845821761E-02 0.105530340E-01 0.127741816E-01 0.150348684E-01 0.172387380E-01 0.192864425E-01 0.210820176E-01 0.225385595E-01 0.235829893E-01 0.241597127E-01 0.242333915E-01 0.237905718E-01 0.228407476E-01 0.214164518E-01 0.195727441E-01 0.173856709E-01 0.149500724E-01 0.123761175E-01 0.978445727E-02 0.729996199E-02 0.504381768E-02 0.312385499E-02 0.162345986E-02 0.589849369E-03 0.589740923E-08
0.179713871E-02 0.418215478E-02 0.721776579E-02 0.108716693E-01 0.150426095E-01 0.195832085E-01 0.243191812E-01 0.290649012E-01 0.336355604E-01 0.378564186E-01 0.415696576E-01 0.446393192E-01 0.469550006E-01 0.484345071E-01 0.490259118E-01 0.487092733E-01 0.474977754E-01 0.454384796E-01 0.426121950E-01 0.391321518E-01 0.351408459E-01 0.308046360E-01 0.263055880E-01 0.218305793E-01 0.175581574E-01 0.138203138E-01 0.106311841E-01 0.798009895E-02 0.583527936E-02 0.414874824E-02 0.286183436E-02 0.191068137E-02 0.123124092E-02 0.763350748E-03 0.453660847E-03 0.257337437E-03 0.138630334E-03 0.705051716E-04 0.336140110E-04 0.148954559E-04 0.607150332E-05 0.224709606E-05 0.742813597E-06 0.214642995E-06 0.526503143E-07 0.105099964E-07 0.159800295E-08 0.164339931E-09 0.817233989E-10 0.106185567E-09 0.580426332E-10 0.578822101E-09 0.392159638E-08 0.202458690E-07 0.850919477E-07 0.303689205E-06 0.947703882E-06 0.264213691E-05 0.668978782E-05 0.155831713E-04 0.337441088E-04 0.685061168E-04 0.131313544E-03 0.239058034E-03 0.415413931E-03 0.691978319E-03 0.110898656E-02 0.171535474E-02 0.256783469E-02 0.372910965E-02 0.526478840E-02 0.723934127E-02 0.971120968E-02 0.127274441E-01 0.163183119E-01 0.204924792E-01 0.249491557E-01 0.295227449E-01 0.340301953E-01 0.382836871E-01 0.421023667E-01 0.453220233E-01 0.478026681E-01 0.494338535E-01 0.501383096E-01 0.498742238E-01 0.486362018E-01 0.464560501E-01 0.434025675E-01 0.395810604E-01 0.351316556E-01 0.302270502E-01 0.250682440E-01 0.198778622E-01 0.148906605E-01 0.103403535E-01 0.644202949E-02 0.337026524E-02 0.123396213E-02 0.116739347E-07
0.336795603E-02 0.772455474E-02 0.131842811E-01 0.196813010E-01 0.270297136E-01 0.349710993E-01 0.432108492E-01 0.514448546E-01 0.593782365E-01 0.667378902E-01 0.732805058E-01 0.787972435E-01 0.831165388E-01 0.861057565E-01 0.876725391E-01 0.877662748E-01 0.863800272E-01 0.835527778E-01 0.793716982E-01 0.739740059E-01 0.675471276E-01 0.603262670E-01 0.525876619E-01 0.446366258E-01 0.367896967E-01 0.296558775E-01 0.233456567E-01 0.179191735E-01 0.133870291E-01 0.971540250E-02 0.683446135E-02 0.464891642E-02 0.304927072E-02 0.192245492E-02 0.116075552E-02 0.668347348E-03 0.365155865E-03 0.188198552E-03 0.908601505E-04 0.407455373E-04 0.167976323E-04 0.628482849E-05 0.209948121E-05 0.612914619E-06 0.151872996E-06 0.306253831E-07 0.470456873E-08 0.488697638E-09 0.114905481E-09 0.134755762E-09 0.174314341E-09 0.172531134E-08 0.115727561E-07 0.591664815E-07 0.246289488E-06 0.870560314E-06 0.269025213E-05 0.742528619E-05 0.186057041E-04 0.428706117E-04 0.917752914E-04 0.184076620E-03 0.348341622E-03 0.625579385E-03 0.107145903E-02 0.175757613E-02 0.277121738E-02 0.421312544E-02 0.619297614E-02 0.882251747E-02 0.122067099E-01 0.164335053E-01 0.215632673E-01 0.276190322E-01 0.345788561E-01 0.423713624E-01 0.504261777E-01 0.584355108E-01 0.660863593E-01 0.730799139E-01 0.791466013E-01 0.840562508E-01 0.876244158E-01 0.897154287E-01 0.902435258E-01 0.891732946E-01 0.865191221E-01 0.823457986E-01 0.767687559E-01 0.699549243E-01 0.621226095E-01 0.535412990E-01 0.445286818E-01 0.354438387E-01 0.266755242E-01 0.186233371E-01 0.116695771E-01 0.614084816E-02 0.226013828E-02 0.201659258E-07
0.571173802E-02 0.129107255E-01 0.217921697E-01 0.322346240E-01 0.439249277E-01 0.564481579E-01 0.693502501E-01 0.821795836E-01 0.945127159E-01 0.105968900E+00 0.116216868E+00 0.124976560E+00 0.132018447E+00 0.137161672E+00 0.140272573E+00 0.141264290E+00 0.140098035E+00 0.136786386E+00 0.131398261E+00 0.124065258E+00 0.114988029E+00 0.104441024E+00 0.927728787E-01 0.803997964E-01 0.677892417E-01 0.558855347E-01 0.449755974E-01 0.352736041E-01 0.269099940E-01 0.199291483E-01 0.142956357E-01 0.990771595E-02 0.661572348E-02 0.424254360E-02 0.260331784E-02 0.152207736E-02 0.843727728E-03 0.440845935E-03 0.215609252E-03 0.978812459E-04 0.408249034E-04 0.154452428E-04 0.521486800E-05 0.153819110E-05 0.385004739E-06 0.784132297E-07 0.121660921E-07 0.127633060E-08 0.173600176E-09 0.172982156E-09 0.460149863E-09 0.451468551E-08 0.299931138E-07 0.151891612E-06 0.626284418E-06 0.219247568E-05 0.670861618E-05 0.183276225E-04 0.454359761E-04 0.103524784E-03 0.219017151E-03 0.433836365E-03 0.810195401E-03 0.143477891E-02 0.242125592E-02 0.390997762E-02 0.606388599E-02 0.906000007E-02 0.130765503E-01 0.182764679E-01 0.247888118E-01 0.326902531E-01 0.419890769E-01 0.526141748E-01 0.644108504E-01 0.771447569E-01 0.899022967E-01 0.102207281E+00 0.113611355E+00 0.123715632E+00 0.132183298E+00 0.138744861E+00 0.143198326E+00 0.145406693E+00 0.145294398E+00 0.142845079E+00 0.138099447E+00 0.131156892E+00 0.122177690E+00 0.111387685E+00 0.990824923E-01 0.856327787E-01 0.714862123E-01 0.571640395E-01 0.432501063E-01 0.303675886E-01 0.191387348E-01 0.101237670E-01 0.373786408E-02 0.313812443E-07
0.895742234E-02 0.199521352E-01 0.333025791E-01 0.488028042E-01 0.659605637E-01 0.841545612E-01 0.102734439E+00 0.121080279E+00 0.138634279E+00 0.154913977E+00 0.169514179E+00 0.182102025E+00 0.192409441E+00 0.200224921E+00 0.205386594E+00 0.207777739E+00 0.207325652E+00 0.204004183E+00 0.197840422E+00 0.188925326E+00 0.177427337E+00 0.163607433E+00 0.147832036E+00 0.130579919E+00 0.112437233E+00 0.946688652E-01 0.778046623E-01 0.623014979E-01 0.485091209E-01 0.366479829E-01 0.268018097E-01 0.189254601E-01 0.128661580E-01 0.839389209E-02 0.523582473E-02 0.310932286E-02 0.174926105E-02 0.926876150E-03 0.459364674E-03 0.211172024E-03 0.891299496E-04 0.341034356E-04 0.116393257E-04 0.346888100E-05 0.876989930E-06 0.180371089E-06 0.282569559E-07 0.299291925E-08 0.283519291E-09 0.230287012E-09 0.109052878E-08 0.106046789E-07 0.698024181E-07 0.350231090E-06 0.143056968E-05 0.496006533E-05 0.150264714E-04 0.406273575E-04 0.996281815E-04 0.224412317E-03 0.469054066E-03 0.917301804E-03 0.169004302E-02 0.295039755E-02 0.490433490E-02 0.779488729E-02 0.118887518E-01 0.174551811E-01 0.247386266E-01 0.339279138E-01 0.451261438E-01 0.583256148E-01 0.733923689E-01 0.900631696E-01 0.107956246E+00 0.126595050E+00 0.144713730E+00 0.161683723E+00 0.176957384E+00 0.190082520E+00 0.200704336E+00 0.208559304E+00 0.213465109E+00 0.215310112E+00 0.214044541E+00 0.209675699E+00 0.202265874E+00 0.191936374E+00 0.178874090E+00 0.163342983E+00 0.145695999E+00 0.126390249E+00 0.105998829E+00 0.852162614E-01 0.648534223E-01 0.458140075E-01 0.290426109E-01 0.154354563E-01 0.570754893E-02 0.450241622E-07
0.131995166E-01 0.289672986E-01 0.478078462E-01 0.693960786E-01 0.930014253E-01 0.117745511E+00 0.142751426E+00 0.167222485E+00 0.190476149E+00 0.211950928E+00 0.231198236E+00 0.247866482E+00 0.261683166E+00 0.272437453E+00 0.279965699E+00 0.284140885E+00 0.284866929E+00 0.282078594E+00 0.275747806E+00 0.265896410E+00 0.252615929E+00 0.236092687E+00 0.216636211E+00 0.194705784E+00 0.170927390E+00 0.146781817E+00 0.123061307E+00 0.100525618E+00 0.798370689E-01 0.615049936E-01 0.458482765E-01 0.329819135E-01 0.228287373E-01 0.151531594E-01 0.960978027E-02 0.579763344E-02 0.331099262E-02 0.177953474E-02 0.893908902E-03 0.416203024E-03 0.177797745E-03 0.688110231E-04 0.237408585E-04 0.714908265E-05 0.182543931E-05 0.379062641E-06 0.599436376E-07 0.640792042E-08 0.487677454E-09 0.322624649E-09 0.235888997E-08 0.227400090E-07 0.148350125E-06 0.737636128E-06 0.298516829E-05 0.102513541E-04 0.307474365E-04 0.822656948E-04 0.199521703E-03 0.444217236E-03 0.917113211E-03 0.177033781E-02 0.321710086E-02 0.553529942E-02 0.906154793E-02 0.141730970E-01 0.212571286E-01 0.306692645E-01 0.426861569E-01 0.574586429E-01 0.749735534E-01 0.950310677E-01 0.117242672E+00 0.141051352E+00 0.165771633E+00 0.190643683E+00 0.214128122E+00 0.235509112E+00 0.254214883E+00 0.269813478E+00 0.281996578E+00 0.290557027E+00 0.295367092E+00 0.296359837E+00 0.293516248E+00 0.286859781E+00 0.276455671E+00 0.262419820E+00 0.244931728E+00 0.224255338E+00 0.200762331E+00 0.174961522E+00 0.147526622E+00 0.119317777E+00 0.913905203E-01 0.649793223E-01 0.414383970E-01 0.221210849E-01 0.818113331E-02 0.606015078E-07
0.184983891E-01 0.399876796E-01 0.652501583E-01 0.938031971E-01 0.124614067E+00 0.156500101E+00 0.188338727E+00 0.219163388E+00 0.248193219E+00 0.274826199E+00 0.298614770E+00 0.319234192E+00 0.336451411E+00 0.350096494E+00 0.360038817E+00 0.366170049E+00 0.368392348E+00 0.366614044E+00 0.360753179E+00 0.350749493E+00 0.336586624E+00 0.318324506E+00 0.296141356E+00 0.270381451E+00 0.241601080E+00 0.211315870E+00 0.180532277E+00 0.150314152E+00 0.121689029E+00 0.955516174E-01 0.725804195E-01 0.531825386E-01 0.374756791E-01 0.253094509E-01 0.163196754E-01 0.100035155E-01 0.580010237E-02 0.316246436E-02 0.161035499E-02 0.759482908E-03 0.328406604E-03 0.128565298E-03 0.448407372E-04 0.136425460E-04 0.351780136E-05 0.737393066E-06 0.117673622E-06 0.126910455E-07 0.852278303E-09 0.474860651E-09 0.471782835E-08 0.451014444E-07 0.291712894E-06 0.143774935E-05 0.576566572E-05 0.196124474E-04 0.582406828E-04 0.154195106E-03 0.369843008E-03 0.813798455E-03 0.165935548E-02 0.316122244E-02 0.566532509E-02 0.960591063E-02 0.154851750E-01 0.238332730E-01 0.351507813E-01 0.498398729E-01 0.681348816E-01 0.900442302E-01 0.115315713E+00 0.143433064E+00 0.173646435E+00 0.205032811E+00 0.236576632E+00 0.267257273E+00 0.295422792E+00 0.320374221E+00 0.341612548E+00 0.358807623E+00 0.371758759E+00 0.380356193E+00 0.384548575E+00 0.384319156E+00 0.379671752E+00 0.370626181E+00 0.357221305E+00 0.339529663E+00 0.317678243E+00 0.291880548E+00 0.262473375E+00 0.229965031E+00 0.195085034E+00 0.158830523E+00 0.122500226E+00 0.876968279E-01 0.562701486E-01 0.301662367E-01 0.111472784E-01 0.775380968E-07
0.248842817E-01 0.529716276E-01 0.854528099E-01 0.121647611E+00 0.160156429E+00 0.199453264E+00 0.238165915E+00 0.275182664E+00 0.309667259E+00 0.341029018E+00 0.368875206E+00 0.392959595E+00 0.413135767E+00 0.429316461E+00 0.441441536E+00 0.449453026E+00 0.453278780E+00 0.452822447E+00 0.447962970E+00 0.438562810E+00 0.424488097E+00 0.405642986E+00 0.382019460E+00 0.353762299E+00 0.321243793E+00 0.285795957E+00 0.248524636E+00 0.210725605E+00 0.173777193E+00 0.139006987E+00 0.107554391E+00 0.802544355E-01 0.575653240E-01 0.395526551E-01 0.259308387E-01 0.161499474E-01 0.950711966E-02 0.525900954E-02 0.271475920E-02 0.129696587E-02 0.567677955E-03 0.224795091E-03 0.792541468E-04 0.243594695E-04 0.634208391E-05 0.134166612E-05 0.215993325E-06 0.234929871E-07 0.147189105E-08 0.722966742E-09 0.881520990E-08 0.836007175E-07 0.536277071E-06 0.262060553E-05 0.104157070E-04 0.350990704E-04 0.103202234E-03 0.270383578E-03 0.641356979E-03 0.139469467E-02 0.280850101E-02 0.528015150E-02 0.933150575E-02 0.155913001E-01 0.247495100E-01 0.374840908E-01 0.543677658E-01 0.757688582E-01 0.101764955E+00 0.132087156E+00 0.166109309E+00 0.202886492E+00 0.241238311E+00 0.279862016E+00 0.317455560E+00 0.352829516E+00 0.384431809E+00 0.411698759E+00 0.434299797E+00 0.452074856E+00 0.464973837E+00 0.473005503E+00 0.476199090E+00 0.474579304E+00 0.468153596E+00 0.456911504E+00 0.440831006E+00 0.419899613E+00 0.394142985E+00 0.363667727E+00 0.328713566E+00 0.289722741E+00 0.247418076E+00 0.202883556E+00 0.157636881E+00 0.113667622E+00 0.733985454E-01 0.395125411E-01 0.145781823E-01 0.952676373E-07
0.323627591E-01 0.678208917E-01 0.108153977E+00 0.152444825E+00 0.198865011E+00 0.245519161E+00 0.290800065E+00 0.333494365E+00 0.372768253E+00 0.408103943E+00 0.439221710E+00 0.466005534E+00 0.488439858E+00 0.506558001E+00 0.520402193E+00 0.529994309E+00 0.535313904E+00 0.536285222E+00 0.532770872E+00 0.524575055E+00 0.511457801E+00 0.493165344E+00 0.469479471E+00 0.440291077E+00 0.405696213E+00 0.366634905E+00 0.324153304E+00 0.279640794E+00 0.234736025E+00 0.191175595E+00 0.150607601E+00 0.114404425E+00 0.835122988E-01 0.583689697E-01 0.389039218E-01 0.246170089E-01 0.147126690E-01 0.825655926E-02 0.432061264E-02 0.209086807E-02 0.926307635E-03 0.371003116E-03 0.132205227E-03 0.410440261E-04 0.107873220E-04 0.230249111E-05 0.373825685E-06 0.409898959E-07 0.247268006E-08 0.111554288E-08 0.155172710E-07 0.146048080E-06 0.929480734E-06 0.450463494E-05 0.177485799E-04 0.592609395E-04 0.172550150E-03 0.447395956E-03 0.104956713E-02 0.225572311E-02 0.448605046E-02 0.832337793E-02 0.145060504E-01 0.238841958E-01 0.373358615E-01 0.556493402E-01 0.793892369E-01 0.108770967E+00 0.143571988E+00 0.183101445E+00 0.226239756E+00 0.271543205E+00 0.317394495E+00 0.362170637E+00 0.404396772E+00 0.442860663E+00 0.476328313E+00 0.504478276E+00 0.527220190E+00 0.544604897E+00 0.556749344E+00 0.563779831E+00 0.565794110E+00 0.562839150E+00 0.554902434E+00 0.541915059E+00 0.523761928E+00 0.500307262E+00 0.471429557E+00 0.437073648E+00 0.397317469E+00 0.352464229E+00 0.303153336E+00 0.250484884E+00 0.196146518E+00 0.142508984E+00 0.926293433E-01 0.500727072E-01 0.184360296E-01 0.113288507E-06