<?xml version="1.0"?>
<VTKFile type="StructuredGrid">
<StructuredGrid WholeExtent="     0   100     0   100     0     0">
<Piece Extent="     0   100     0   100     0     0">
<Points>
<DataArray type="Float32" NumberOfComponents="3"/>
0.000000000E+00 0.000000000E+00 0.000000000E+00 0.199999996E-01 0.000000000E+00 0.000000000E+00 0.399999991E-01 0.000000000E+00 0.000000000E+00 0.599999987E-01 0.000000000E+00 0.000000000E+00 0.799999982E-01 0.000000000E+00 0.000000000E+00 0.100000001E+00 0.000000000E+00 0.000000000E+00 0.119999997E+00 0.000000000E+00 0.000000000E+00 0.140000001E+00 0.000000000E+00 0.000000000E+00 0.159999996E+00 0.000000000E+00 0.000000000E+00 0.180000007E+00 0.000000000E+00 0.000000000E+00 0.200000003E+00 0.000000000E+00 0.000000000E+00 0.219999999E+00 0.000000000E+00 0.000000000E+00 0.239999995E+00 0.000000000E+00 0.000000000E+00 0.259999990E+00 0.000000000E+00 0.000000000E+00 0.280000001E+00 0.000000000E+00 0.000000000E+00 0.300000012E+00 0.000000000E+00 0.000000000E+00 0.319999993E+00 0.000000000E+00 0.000000000E+00 0.340000004E+00 0.000000000E+00 0.000000000E+00 0.360000014E+00 0.000000000E+00 0.000000000E+00 0.379999995E+00 0.000000000E+00 0.000000000E+00 0.400000006E+00 0.000000000E+00 0.000000000E+00 0.419999987E+00 0.000000000E+00 0.000000000E+00 0.439999998E+00 0.000000000E+00 0.000000000E+00 0.460000008E+00 0.000000000E+00 0.000000000E+00 0.479999989E+00 0.000000000E+00 0.000000000E+00 0.500000000E+00 0.000000000E+00 0.000000000E+00 0.519999981E+00 0.000000000E+00 0.000000000E+00 0.540000021E+00 0.000000000E+00 0.000000000E+00 0.560000002E+00 0.000000000E+00 0.000000000E+00 0.579999983E+00 0.000000000E+00 0.000000000E+00 0.600000024E+00 0.000000000E+00 0.000000000E+00 0.620000005E+00 0.000000000E+00 0.000000000E+00 0.639999986E+00 0.000000000E+00 0.000000000E+00 0.660000026E+00 0.000000000E+00 0.000000000E+00 0.680000007E+00 0.000000000E+00 0.000000000E+00 0.699999988E+00 0.000000000E+00 0.000000000E+00 0.720000029E+00 0.000000000E+00 0.000000000E+00 0.740000010E+00 0.000000000E+00 0.000000000E+00 0.759999990E+00 0.000000000E+00 0.000000000E+00 0.779999971E+00 0.000000000E+00 0.000000000E+00 0.800000012E+00 0.000000000E+00 0.000000000E+00 0.819999993E+00 0.000000000E+00 0.000000000E+00 0.839999974E+00 0.000000000E+00 0.000000000E+00 0.860000014E+00 0.000000000E+00 0.000000000E+00 0.879999995E+00 0.000000000E+00 0.000000000E+00 0.899999976E+00 0.000000000E+00 0.000000000E+00 0.920000017E+00 0.000000000E+00 0.000000000E+00 0.939999998E+00 0.000000000E+00 0.000000000E+00 0.959999979E+00 0.000000000E+00 0.000000000E+00 0.980000019E+00 0.000000000E+00 0.000000000E+00 0.100000000E+01 0.000000000E+00 0.000000000E+00 0.101999998E+01 0.000000000E+00 0.000000000E+00 0.103999996E+01 0.000000000E+00 0.000000000E+00 0.105999994E+01 0.000000000E+00 0.000000000E+00 0.108000004E+01 0.000000000E+00 0.000000000E+00 0.110000002E+01 0.000000000E+00 0.000000000E+00 0.112000000E+01 0.000000000E+00 0.000000000E+00 0.113999999E+01 0.000000000E+00 0.000000000E+00 0.115999997E+01 0.000000000E+00 0.000000000E+00 0.117999995E+01 0.000000000E+00 0.000000000E+00 0.120000005E+01 0.000000000E+00 0.000000000E+00 0.122000003E+01 0.000000000E+00 0.000000000E+00 0.124000001E+01 0.000000000E+00 0.000000000E+00 0.125999999E+01 0.000000000E+00 0.000000000E+00 0.127999997E+01 0.000000000E+00 0.000000000E+00 0.129999995E+01 0.000000000E+00 0.000000000E+00 0.132000005E+01 0.000000000E+00 0.000000000E+00 0.134000003E+01 0.000000000E+00 0.000000000E+00 0.136000001E+01 0.000000000E+00 0.000000000E+00 0.138000000E+01 0.000000000E+00 0.000000000E+00 0.139999998E+01 0.000000000E+00 0.000000000E+00 0.141999996E+01 0.000000000E+00 0.000000000E+00 0.144000006E+01 0.000000000E+00 0.000000000E+00 0.146000004E+01 0.000000000E+00 0.000000000E+00 0.148000002E+01 0.000000000E+00 0.000000000E+00 0.150000000E+01 0.000000000E+00 0.000000000E+00 0.151999998E+01 0.000000000E+00 0.000000000E+00 0.153999996E+01 0.000000000E+00 0.000000000E+00 0.155999994E+01 0.000000000E+00 0.000000000E+00 0.158000004E+01 0.000000000E+00 0.000000000E+00 0.160000002E+01 0.000000000E+00 0.000000000E+00 0.162000000E+01 0.000000000E+00 0.000000000E+00 0.163999999E+01 0.000000000E+00 0.000000000E+00 0.165999997E+01 0.000000000E+00 0.000000000E+00 0.167999995E+01 0.000000000E+00 0.000000000E+00 0.170000005E+01 0.000000000E+00 0.000000000E+00 0.172000003E+01 0.000000000E+00 0.000000000E+00 0.174000001E+01 0.000000000E+00 0.000000000E+00 0.175999999E+01 0.000000000E+00 0.000000000E+00 0.177999997E+01 0.000000000E+00 0.000000000E+00 0.179999995E+01 0.000000000E+00 0.000000000E+00 0.182000005E+01 0.000000000E+00 0.000000000E+00 0.184000003E+01 0.000000000E+00 0.000000000E+00 0.186000001E+01 0.000000000E+00 0.000000000E+00 0.188000000E+01 0.000000000E+00 0.000000000E+00 0.189999998E+01 0.000000000E+00 0.000000000E+00 0.191999996E+01 0.000000000E+00 0.000000000E+00 0.194000006E+01 0.000000000E+00 0.000000000E+00 0.196000004E+01 0.000000000E+00 0.000000000E+00 0.198000002E+01 0.000000000E+00 0.000000000E+00 0.200000000E+01 0.000000000E+00 0.000000000E+00
0.000000000E+00 0.999999978E-02 0.000000000E+00 0.199999996E-01 0.999999978E-02 0.000000000E+00 0.399999991E-01 0.999999978E-02 0.000000000E+00 0.599999987E-01 0.999999978E-02 0.000000000E+00 0.799999982E-01 0.999999978E-02 0.000000000E+00 0.100000001E+00 0.999999978E-02 0.000000000E+00 0.119999997E+00 0.999999978E-02 0.000000000E+00 0.140000001E+00 0.999999978E-02 0.000000000E+00 0.159999996E+00 0.999999978E-02 0.000000000E+00 0.180000007E+00 0.999999978E-02 0.000000000E+00 0.200000003E+00 0.999999978E-02 0.000000000E+00 0.219999999E+00 0.999999978E-02 0.000000000E+00 0.239999995E+00 0.999999978E-02 0.000000000E+00 0.259999990E+00 0.999999978E-02 0.000000000E+00 0.280000001E+00 0.999999978E-02 0.000000000E+00 0.300000012E+00 0.999999978E-02 0.000000000E+00 0.319999993E+00 0.999999978E-02 0.000000000E+00 0.340000004E+00 0.999999978E-02 0.000000000E+00 0.360000014E+00 0.999999978E-02 0.000000000E+00 0.379999995E+00 0.999999978E-02 0.000000000E+00 0.400000006E+00 0.999999978E-02 0.000000000E+00 0.419999987E+00 0.999999978E-02 0.000000000E+00 0.439999998E+00 0.999999978E-02 0.000000000E+00 0.460000008E+00 0.999999978E-02 0.000000000E+00 0.479999989E+00 0.999999978E-02 0.000000000E+00 0.500000000E+00 0.999999978E-02 0.000000000E+00 0.519999981E+00 0.999999978E-02 0.000000000E+00 0.540000021E+00 0.999999978E-02 0.000000000E+00 0.560000002E+00 0.999999978E-02 0.000000000E+00 0.579999983E+00 0.999999978E-02 0.000000000E+00 0.600000024E+00 0.999999978E-02 0.000000000E+00 0.620000005E+00 0.999999978E-02 0.000000000E+00 0.639999986E+00 0.999999978E-02 0.000000000E+00 0.660000026E+00 0.999999978E-02 0.000000000E+00 0.680000007E+00 0.999999978E-02 0.000000000E+00 0.699999988E+00 0.999999978E-02 0.000000000E+00 0.720000029E+00 0.999999978E-02 0.000000000E+00 0.740000010E+00 0.999999978E-02 0.000000000E+00 0.759999990E+00 0.999999978E-02 0.000000000E+00 0.779999971E+00 0.999999978E-02 0.000000000E+00 0.800000012E+00 0.999999978E-02 0.000000000E+00 0.819999993E+00 0.999999978E-02 0.000000000E+00 0.839999974E+00 0.999999978E-02 0.000000000E+00 0.860000014E+00 0.999999978E-02 0.000000000E+00 0.879999995E+00 0.999999978E-02 0.000000000E+00 0.899999976E+00 0.999999978E-02 0.000000000E+00 0.920000017E+00 0.999999978E-02 0.000000000E+00 0.939999998E+00 0.999999978E-02 0.000000000E+00 0.959999979E+00 0.999999978E-02 0.000000000E+00 0.980000019E+00 0.999999978E-02 0.000000000E+00 0.100000000E+01 0.999999978E-02 0.000000000E+00 0.101999998E+01 0.999999978E-02 0.000000000E+00 0.103999996E+01 0.999999978E-02 0.000000000E+00 0.105999994E+01 0.999999978E-02 0.000000000E+00 0.108000004E+01 0.999999978E-02 0.000000000E+00 0.110000002E+01 0.999999978E-02 0.000000000E+00 0.112000000E+01 0.999999978E-02 0.000000000E+00 0.113999999E+01 0.999999978E-02 0.000000000E+00 0.115999997E+01 0.999999978E-02 0.000000000E+00 0.117999995E+01 0.999999978E-02 0.000000000E+00 0.120000005E+01 0.999999978E-02 0.000000000E+00 0.122000003E+01 0.999999978E-02 0.000000000E+00 0.124000001E+01 0.999999978E-02 0.000000000E+00 0.125999999E+01 0.999999978E-02 0.000000000E+00 0.127999997E+01 0.999999978E-02 0.000000000E+00 0.129999995E+01 0.999999978E-02 0.000000000E+00 0.132000005E+01 0.999999978E-02 0.000000000E+00 0.134000003E+01 0.999999978E-02 0.000000000E+00 0.136000001E+01 0.999999978E-02 0.000000000E+00 0.138000000E+01 0.999999978E-02 0.000000000E+00 0.139999998E+01 0.999999978E-02 0.000000000E+00 0.141999996E+01 0.999999978E-02 0.000000000E+00 0.144000006E+01 0.999999978E-02 0.000000000E+00 0.146000004E+01 0.999999978E-02 0.000000000E+00 0.148000002E+01 0.999999978E-02 0.000000000E+00 0.150000000E+01 0.999999978E-02 0.000000000E+00 0.151999998E+01 0.999999978E-02 0.000000000E+00 0.153999996E+01 0.999999978E-02 0.000000000E+00 0.155999994E+01 0.999999978E-02 0.000000000E+00 0.158000004E+01 0.999999978E-02 0.000000000E+00 0.160000002E+01 0.999999978E-02 0.000000000E+00 0.162000000E+01 0.999999978E-02 0.000000000E+00 0.163999999E+01 0.999999978E-02 0.000000000E+00 0.165999997E+01 0.999999978E-02 0.000000000E+00 0.167999995E+01 0.999999978E-02 0.000000000E+00 0.170000005E+01 0.999999978E-02 0.000000000E+00 0.172000003E+01 0.999999978E-02 0.000000000E+00 0.174000001E+01 0.999999978E-02 0.000000000E+00 0.175999999E+01 0.999999978E-02 0.000000000E+00 0.177999997E+01 0.999999978E-02 0.000000000E+00 0.179999995E+01 0.999999978E-02 0.000000000E+00 0.182000005E+01 0.999999978E-02 0.000000000E+00 0.184000003E+01 0.999999978E-02 0.000000000E+00 0.186000001E+01 0.999999978E-02 0.000000000E+00 0.188000000E+01 0.999999978E-02 0.000000000E+00 0.189999998E+01 0.999999978E-02 0.000000000E+00 0.191999996E+01 0.999999978E-02 0.000000000E+00 0.194000006E+01 0.999999978E-02 0.000000000E+00 0.196000004E+01 0.999999978E-02 0.000000000E+00 0.198000002E+01 0.999999978E-02 0.000000000E+00 0.200000000E+01 0.999999978E-02 0.000000000E+00
[...]
<CellData Scalars="Temperature, U, V">
<DataArray type="Float32" Name="Temp, K"/>
0.241149975E-13 0.231345379E-12 0.127549306E-11 0.475456176E-11 0.132287029E-10 0.293424174E-10 0.542704597E-10 0.863598706E-10 0.120888202E-09 0.151260088E-09 0.171154591E-09 0.176633583E-09 0.167292236E-09 0.146063522E-09 0.117934523E-09 0.882458065E-10 0.612726397E-10 0.395037614E-10 0.236514072E-10 0.131455151E-10 0.677788641E-11 0.323864199E-11 0.143224972E-11 0.585313319E-12 0.220647312E-12 0.810469313E-13 0.289295125E-13 0.100062975E-13 0.334351793E-14 0.107571406E-14 0.332044644E-15 0.979502945E-16 0.274956440E-16 0.731003330E-17 0.183103005E-17 0.429584490E-18 0.937807554E-19 0.189074893E-19 0.349032212E-20 0.584049441E-21 0.875440977E-22 0.115869404E-22 0.133056686E-23 0.912548773E-24 0.318701730E-18 0.183506273E-15 0.480782609E-13 0.680695821E-11 0.507787423E-09 0.719781346E-09 0.130523127E-10 0.122294210E-12 0.653398886E-15 0.194786186E-17 0.261397495E-20 0.228723761E-24 0.198591552E-23 0.153994200E-22 0.105429007E-21 0.646498952E-21 0.359333720E-20 0.182860811E-19 0.859389281E-19 0.375814260E-18 0.153938250E-17 0.594105518E-17 0.217176171E-16 0.755535323E-16 0.251225393E-15 0.801580630E-15 0.246305979E-14 0.731298601E-14 0.210450689E-13 0.588702603E-13 0.160512500E-12 0.427662273E-12 0.105349713E-11 0.240299013E-11 0.508158316E-11 0.997247337E-11 0.181745539E-10 0.307704418E-10 0.483939173E-10 0.706646963E-10 0.956928009E-10 0.119953297E-09 0.138798736E-09 0.147660370E-09 0.143624876E-09 0.126752012E-09 0.100430497E-09 0.704124953E-10 0.428049089E-10 0.219215982E-10 0.906961832E-11 0.284773529E-11 0.616128025E-12 0.782499743E-13 0.416758718E-14 0.116595574E-19
0.383824076E-12 0.348959186E-11 0.184550084E-10 0.667310235E-10 0.181801407E-09 0.397896993E-09 0.730731864E-09 0.116063348E-08 0.162887592E-08 0.205131512E-08 0.234419728E-08 0.245088105E-08 0.235827802E-08 0.209729367E-08 0.172902159E-08 0.132393052E-08 0.942656064E-09 0.624432173E-09 0.384817789E-09 0.220531066E-09 0.117430093E-09 0.580364576E-10 0.265848853E-10 0.112687941E-10 0.441194130E-11 0.168072457E-11 0.621417848E-12 0.222390709E-12 0.768118208E-13 0.255237048E-13 0.813142990E-14 0.247434015E-14 0.716173768E-15 0.196268161E-15 0.506680551E-16 0.122513621E-16 0.275670988E-17 0.572997471E-18 0.109088928E-18 0.188351675E-19 0.291482555E-20 0.398595436E-21 0.475857496E-22 0.300622597E-21 0.790223475E-18 0.413506106E-15 0.105080238E-12 0.146892359E-10 0.109100029E-08 0.154407631E-08 0.279717170E-10 0.263401659E-12 0.142609379E-14 0.438932349E-17 0.654402616E-20 0.102566803E-22 0.705127675E-22 0.529143964E-21 0.350881574E-20 0.208548776E-19 0.112417374E-18 0.555078878E-18 0.253204287E-17 0.107496662E-16 0.427509903E-16 0.160185246E-15 0.568400665E-15 0.191887776E-14 0.618892204E-14 0.191429158E-13 0.569817563E-13 0.163751757E-12 0.455659111E-12 0.123108598E-11 0.323773994E-11 0.830889871E-11 0.197392033E-10 0.434779469E-10 0.889060076E-10 0.168956849E-09 0.298634395E-09 0.491153507E-09 0.751680218E-09 0.107006071E-08 0.141551315E-08 0.173703807E-08 0.197223016E-08 0.206402695E-08 0.198049843E-08 0.172958747E-08 0.136086975E-08 0.951280832E-09 0.579304660E-09 0.298882197E-09 0.125446015E-09 0.403058802E-10 0.901830347E-11 0.119879627E-11 0.676538767E-13 0.192199732E-18
0.408423339E-11 0.353340759E-10 0.179877266E-09 0.632598363E-09 0.169064440E-08 0.365506425E-08 0.666834321E-08 0.105718883E-07 0.148700030E-07 0.188353031E-07 0.217189999E-07 0.229791777E-07 0.224353141E-07 0.202952251E-07 0.170581078E-07 0.133451730E-07 0.972779368E-08 0.660948762E-08 0.418532098E-08 0.246864640E-08 0.135508582E-08 0.691404267E-09 0.327432220E-09 0.143681830E-09 0.583107382E-10 0.229919174E-10 0.878729554E-11 0.324697669E-11 0.115675687E-11 0.396123753E-12 0.129959601E-12 0.407000314E-13 0.121183962E-13 0.341525251E-14 0.906493601E-15 0.225340913E-15 0.521309207E-16 0.111425530E-16 0.218209729E-17 0.387714572E-18 0.617796384E-19 0.870459122E-20 0.106649339E-20 0.104701073E-20 0.143868649E-17 0.696995725E-15 0.172277733E-12 0.237893923E-10 0.175879289E-08 0.248522114E-08 0.449977174E-10 0.425923294E-12 0.233554766E-14 0.739928857E-17 0.120116763E-19 0.195814424E-21 0.158560890E-20 0.115475415E-19 0.743695471E-19 0.429585394E-18 0.225173886E-17 0.108159283E-16 0.480100028E-16 0.198371344E-15 0.767838331E-15 0.279992098E-14 0.966675843E-14 0.317411909E-13 0.995243994E-13 0.299083078E-12 0.864291386E-12 0.240913821E-11 0.649555106E-11 0.169843497E-10 0.431722574E-10 0.106919307E-09 0.245427678E-09 0.522995758E-09 0.103603826E-08 0.191006033E-08 0.328007665E-08 0.524952659E-08 0.783114285E-08 0.108860307E-07 0.140889869E-07 0.169502989E-07 0.189101819E-07 0.194927274E-07 0.184712317E-07 0.159768128E-07 0.124911006E-07 0.870830519E-08 0.531177324E-08 0.275911471E-08 0.117326848E-08 0.384934001E-09 0.888013621E-10 0.123084815E-10 0.732909772E-12 0.210714500E-17
0.318492177E-10 0.262837863E-09 0.129073086E-08 0.442190595E-08 0.116046710E-07 0.247962397E-07 0.449494060E-07 0.711233170E-07 0.100230032E-06 0.127634252E-06 0.148414784E-06 0.158794634E-06 0.157190613E-06 0.144521465E-06 0.123736001E-06 0.988182549E-07 0.736782795E-07 0.512999776E-07 0.333476642E-07 0.202255546E-07 0.114337615E-07 0.601689631E-08 0.294295210E-08 0.133554090E-08 0.561232449E-09 0.228802199E-09 0.902918365E-10 0.344081083E-10 0.126285432E-10 0.445114431E-11 0.150188575E-11 0.483421734E-12 0.147860009E-12 0.427887299E-13 0.116588190E-13 0.297474922E-14 0.706347445E-15 0.154976814E-15 0.311613065E-16 0.568679475E-17 0.931155148E-18 0.134898036E-18 0.169943659E-19 0.380630996E-20 0.229366575E-17 0.104226144E-14 0.251141095E-12 0.342689037E-10 0.252132848E-08 0.355689678E-08 0.644006307E-10 0.612846742E-12 0.340221943E-14 0.110677320E-16 0.195395877E-19 0.311553781E-20 0.252599294E-19 0.178910559E-18 0.112139097E-17 0.630784940E-17 0.322122692E-16 0.150794854E-15 0.652481285E-15 0.262826298E-14 0.991740903E-14 0.352486730E-13 0.118582729E-12 0.379251101E-12 0.115760277E-11 0.338418963E-11 0.950615541E-11 0.257322740E-10 0.673029202E-10 0.170504319E-09 0.419335677E-09 0.100326902E-08 0.222745333E-08 0.459673988E-08 0.883008333E-08 0.158079505E-07 0.263991602E-07 0.411511856E-07 0.598916401E-07 0.813694996E-07 0.103121380E-06 0.121733052E-06 0.133549065E-06 0.135693313E-06 0.127068205E-06 0.108919714E-06 0.846535926E-07 0.588752940E-07 0.359712331E-07 0.188057747E-07 0.809605538E-08 0.270890554E-08 0.643139486E-09 0.927340565E-10 0.581105910E-11 0.168574694E-16
0.194777333E-09 0.153703672E-08 0.729604555E-08 0.243851730E-07 0.629002201E-07 0.132898634E-06 0.239399526E-06 0.378002397E-06 0.533515333E-06 0.682645009E-06 0.799958343E-06 0.864912181E-06 0.867381573E-06 0.809831363E-06 0.705676086E-06 0.574783996E-06 0.437947620E-06 0.312191474E-06 0.208136598E-06 0.129680558E-06 0.754266409E-07 0.408978309E-07 0.206394404E-07 0.967658842E-08 0.420623092E-08 0.177107873E-08 0.720872861E-09 0.282988910E-09 0.106877167E-09 0.387265255E-10 0.134219927E-10 0.443447883E-11 0.139139676E-11 0.412871614E-12 0.115313683E-12 0.301526822E-13 0.733677408E-14 0.164960482E-14 0.339956620E-15 0.636049415E-16 0.106815437E-16 0.158793035E-17 0.205390368E-18 0.261318521E-19 0.339260022E-17 0.145911621E-14 0.343372547E-12 0.463109967E-10 0.338991590E-08 0.477430717E-08 0.864862348E-10 0.827610333E-12 0.465010034E-14 0.155028536E-16 0.326553361E-19 0.385012832E-19 0.305166548E-18 0.210641667E-17 0.128747900E-16 0.706576091E-16 0.352177029E-15 0.160954588E-14 0.680023630E-14 0.267468424E-13 0.985383514E-13 0.341865642E-12 0.112224704E-11 0.350060172E-11 0.104151280E-10 0.296574744E-10 0.810752507E-10 0.213372195E-09 0.541980183E-09 0.133176614E-08 0.317239568E-08 0.734006234E-08 0.157781397E-07 0.315642161E-07 0.588531144E-07 0.102408102E-06 0.166469349E-06 0.252978793E-06 0.359536273E-06 0.477835442E-06 0.593504296E-06 0.688045759E-06 0.742883174E-06 0.744587396E-06 0.689537160E-06 0.586099418E-06 0.453056629E-06 0.314437557E-06 0.192447160E-06 0.101240850E-06 0.440977495E-07 0.150302153E-07 0.366600861E-08 0.548630419E-09 0.360848088E-10 0.105304526E-15
0.976270287E-09 0.738413952E-08 0.339478028E-07 0.110844304E-06 0.281258394E-06 0.587839907E-06 0.105231459E-05 0.165769416E-05 0.234228833E-05 0.300966713E-05 0.355186103E-05 0.387769251E-05 0.393640767E-05 0.372894533E-05 0.330411058E-05 0.274229387E-05 0.213325598E-05 0.155544637E-05 0.106255027E-05 0.679440348E-06 0.406201707E-06 0.226716224E-06 0.117932593E-06 0.570645611E-07 0.256313299E-07 0.111349152E-07 0.466956207E-08 0.188630156E-08 0.732256034E-09 0.272451978E-09 0.968774574E-10 0.328130474E-10 0.105482324E-10 0.320513863E-11 0.916317261E-12 0.245191833E-12 0.610426965E-13 0.140424163E-13 0.296111453E-14 0.566996285E-15 0.974810051E-16 0.148424078E-16 0.196731798E-17 0.227689141E-18 0.479404890E-17 0.195918297E-14 0.450945108E-12 0.601238920E-10 0.437715197E-08 0.615436635E-08 0.111600860E-09 0.107417612E-11 0.610734811E-14 0.208367574E-16 0.818743629E-19 0.377713415E-18 0.292300896E-17 0.197012783E-16 0.117647582E-15 0.631072739E-15 0.307533756E-14 0.137444885E-13 0.567901981E-13 0.218436529E-12 0.786844439E-12 0.266836921E-11 0.855874312E-11 0.260716015E-10 0.757029647E-10 0.210219342E-09 0.559925162E-09 0.143430201E-08 0.354200136E-08 0.845081871E-08 0.195184828E-07 0.437185079E-07 0.910806079E-07 0.176804534E-06 0.320294788E-06 0.542231419E-06 0.858776900E-06 0.127348392E-05 0.176900005E-05 0.230197338E-05 0.280475433E-05 0.319598030E-05 0.339897611E-05 0.336335347E-05 0.308250219E-05 0.259985450E-05 0.199990131E-05 0.138563666E-05 0.849667344E-06 0.449716282E-06 0.198080244E-06 0.687004871E-07 0.171864460E-07 0.266350497E-08 0.183392579E-09 0.536754350E-15
0.413834167E-08 0.300701579E-07 0.134142525E-06 0.428434817E-06 0.107019900E-05 0.221328810E-05 0.393729852E-05 0.618620152E-05 0.874659963E-05 0.112792522E-04 0.133958147E-04 0.147554274E-04 0.151493978E-04 0.145477206E-04 0.130955123E-04 0.110646242E-04 0.877945331E-05 0.654154246E-05 0.457432225E-05 0.299906742E-05 0.184117823E-05 0.105675917E-05 0.566041763E-06 0.282390118E-06 0.130929934E-06 0.586242201E-07 0.253036454E-07 0.105071321E-07 0.418798551E-08 0.159829439E-08 0.582399518E-09 0.201991868E-09 0.664452660E-10 0.206483771E-10 0.603457952E-11 0.165016048E-11 0.419738951E-12 0.986436139E-13 0.212505269E-13 0.415755238E-14 0.730509907E-15 0.113714014E-15 0.154167011E-16 0.178919601E-17 0.666485269E-17 0.255624210E-14 0.576148070E-12 0.759445840E-10 0.549709211E-08 0.771592212E-08 0.140137554E-09 0.135711787E-11 0.780704762E-14 0.272460654E-16 0.396152615E-18 0.302846125E-17 0.229162663E-16 0.151103372E-15 0.883138256E-15 0.463811101E-14 0.221345549E-13 0.968887310E-13 0.392089789E-12 0.147691646E-11 0.520882339E-11 0.172889498E-10 0.542508850E-10 0.161581235E-09 0.458421190E-09 0.124280863E-08 0.322879767E-08 0.805893663E-08 0.193688869E-07 0.449169910E-07 0.100691544E-06 0.218557730E-06 0.441741918E-06 0.832900810E-06 0.146741741E-05 0.241921634E-05 0.373661442E-05 0.541207010E-05 0.735495041E-05 0.937976893E-05 0.112210819E-04 0.125791812E-04 0.131892302E-04 0.128955298E-04 0.117057907E-04 0.980359164E-05 0.750897334E-05 0.519600235E-05 0.319291576E-05 0.170017267E-05 0.756904058E-06 0.266880079E-06 0.683702694E-07 0.109490772E-07 0.787138188E-09 0.230359758E-14
0.151926542E-07 0.106286564E-06 0.460884394E-06 0.144156240E-05 0.354716713E-05 0.726065082E-05 0.128342717E-04 0.201057137E-04 0.284308171E-04 0.367712782E-04 0.439157120E-04 0.487648358E-04 0.505922690E-04 0.492039035E-04 0.449551117E-04 0.386310057E-04 0.312358898E-04 0.237602599E-04 0.169915420E-04 0.114112017E-04 0.718685897E-05 0.423773508E-05 0.233505625E-05 0.119985748E-05 0.573664806E-06 0.264471140E-06 0.117371236E-06 0.500480404E-07 0.204611386E-07 0.800110822E-08 0.298455061E-08 0.105876741E-08 0.355984714E-09 0.113003849E-09 0.337195029E-10 0.941068751E-11 0.244240153E-11 0.585569516E-12 0.128684959E-12 0.256843700E-13 0.460471843E-14 0.731572669E-15 0.101267474E-15 0.119608315E-16 0.978564177E-17 0.326668548E-14 0.721642147E-12 0.940431413E-10 0.676543355E-08 0.948000345E-08 0.172542813E-09 0.168172149E-11 0.978813401E-14 0.350552824E-16 0.241214035E-17 0.203270537E-16 0.150667110E-15 0.973591105E-15 0.557857254E-14 0.287305309E-13 0.134477417E-12 0.577361997E-12 0.229154846E-11 0.846433687E-11 0.292649203E-10 0.951868862E-10 0.292548957E-09 0.852905468E-09 0.236689868E-08 0.627137320E-08 0.159085918E-07 0.387293326E-07 0.906830167E-07 0.204609364E-06 0.445637340E-06 0.938322842E-06 0.184175087E-05 0.337628671E-05 0.579061089E-05 0.930567512E-05 0.140304783E-04 0.198673915E-04 0.264392565E-04 0.330758048E-04 0.388872977E-04 0.429275242E-04 0.444139769E-04 0.429451611E-04 0.386423962E-04 0.321596963E-04 0.245426072E-04 0.169695413E-04 0.104527480E-04 0.559957789E-05 0.251878373E-05 0.902101704E-06 0.236323331E-06 0.390266663E-07 0.292185254E-08 0.852477082E-14
0.492224892E-07 0.332240887E-06 0.140269560E-05 0.430117461E-05 0.104314349E-04 0.211361494E-04 0.371185815E-04 0.579555926E-04 0.819174602E-04 0.106187465E-03 0.127427717E-03 0.142522054E-03 0.149279367E-03 0.146900929E-03 0.136094997E-03 0.118829506E-03 0.978161697E-04 0.758881797E-04 0.554463295E-04 0.381058926E-04 0.245967931E-04 0.148855552E-04 0.842931604E-05 0.445679279E-05 0.219507092E-05 0.104092351E-05 0.474518345E-06 0.207576107E-06 0.869589130E-07 0.348072717E-07 0.132776723E-07 0.481282347E-08 0.165221081E-08 0.535162581E-09 0.162854896E-09 0.463320667E-10 0.122539713E-10 0.299324172E-11 0.670106928E-12 0.136249058E-12 0.248861194E-13 0.402891645E-14 0.568474781E-15 0.684157710E-16 0.180378545E-16 0.411021467E-14 0.890522736E-12 0.114727811E-09 0.819973067E-08 0.114700924E-07 0.209324655E-09 0.205410558E-11 0.120965156E-13 0.452390569E-16 0.137581237E-16 0.116450037E-15 0.846934691E-15 0.537215824E-14 0.302249342E-13 0.152876057E-12 0.702806682E-12 0.296358012E-11 0.115511567E-10 0.418907201E-10 0.142153053E-09 0.453607402E-09 0.136697664E-08 0.390519439E-08 0.106114548E-07 0.275067684E-07 0.681980197E-07 0.162097791E-06 0.370122535E-06 0.813323936E-06 0.172275395E-05 0.352233451E-05 0.672072247E-05 0.119903489E-04 0.200382510E-04 0.314195968E-04 0.462870194E-04 0.641392253E-04 0.836637191E-04 0.102768681E-03 0.118857373E-03 0.129322856E-03 0.132153873E-03 0.126485640E-03 0.112914830E-03 0.934551936E-04 0.711086541E-04 0.491549545E-04 0.303612524E-04 0.163643344E-04 0.743536611E-05 0.270292912E-05 0.723122355E-06 0.122902009E-06 0.955836477E-08 0.277212284E-13
0.142919632E-06 0.932573982E-06 0.383929728E-05 0.115523198E-04 0.276271312E-04 0.554167927E-04 0.966686857E-04 0.150368898E-03 0.212319457E-03 0.275644183E-03 0.332096039E-03 0.373791845E-03 0.394898758E-03 0.392831338E-03 0.368673820E-03 0.326759298E-03 0.273565674E-03 0.216257744E-03 0.161275937E-03 0.113316433E-03 0.748928869E-04 0.464729092E-04 0.270189175E-04 0.146847588E-04 0.744310137E-05 0.362703554E-05 0.169677048E-05 0.760741273E-06 0.326256441E-06 0.133548582E-06 0.520472270E-07 0.192577989E-07 0.674327438E-08 0.222638308E-08 0.690202229E-09 0.199946545E-09 0.538274737E-10 0.133796490E-10 0.304752426E-11 0.630382682E-12 0.117140496E-12 0.192962525E-13 0.277095881E-14 0.339449301E-15 0.488442178E-16 0.511131232E-14 0.108639757E-11 0.138350859E-09 0.981964199E-08 0.137124561E-07 0.251062116E-09 0.248136754E-11 0.147865966E-13 0.615595620E-16 0.692232713E-16 0.578589730E-15 0.413566462E-14 0.257898273E-13 0.142680816E-12 0.709727958E-12 0.320884682E-11 0.133062329E-10 0.509930084E-10 0.181772486E-09 0.606076467E-09 0.189935001E-08 0.561810198E-08 0.157428026E-07 0.419265547E-07 0.106426356E-06 0.258138755E-06 0.599600583E-06 0.133635137E-05 0.286265526E-05 0.590272839E-05 0.117308855E-04 0.217795405E-04 0.378522309E-04 0.616988982E-04 0.944817875E-04 0.136129660E-03 0.184767792E-03 0.236461201E-03 0.285471790E-03 0.325098605E-03 0.348982168E-03 0.352567091E-03 0.334327924E-03 0.296364917E-03 0.244140523E-03 0.185346071E-03 0.128167754E-03 0.794140360E-04 0.430719410E-04 0.197644313E-04 0.728798796E-05 0.198878911E-05 0.347237858E-06 0.279846262E-07 0.804504439E-13
0.376705771E-06 0.238065149E-05 0.957039356E-05 0.282817200E-04 0.667182976E-04 0.132489149E-03 0.229503406E-03 0.355486700E-03 0.501106435E-03 0.651063921E-03 0.786859659E-03 0.890470168E-03 0.947991153E-03 0.952359987E-03 0.904549146E-03 0.813012419E-03 0.691601366E-03 0.556535786E-03 0.423227350E-03 0.303729437E-03 0.205344157E-03 0.130526736E-03 0.778377362E-04 0.434444737E-04 0.226387347E-04 0.113256929E-04 0.543215720E-05 0.249391996E-05 0.109395671E-05 0.457524806E-06 0.182006076E-06 0.686794195E-07 0.245064875E-07 0.823946866E-08 0.259958255E-08 0.766034625E-09 0.209683937E-09 0.529776778E-10 0.122626197E-10 0.257733353E-11 0.486616823E-12 0.814501326E-13 0.118865328E-13 0.148011416E-14 0.170986160E-15 0.630316603E-14 0.131347732E-11 0.165315539E-09 0.116472112E-07 0.162365072E-07 0.298415931E-09 0.297174785E-11 0.179235018E-13 0.984560194E-16 0.306902139E-15 0.252717447E-14 0.177796400E-13 0.109155571E-12 0.594630410E-12 0.291259573E-11 0.129665671E-10 0.529369396E-10 0.199683076E-09 0.700396685E-09 0.229692376E-08 0.707628223E-08 0.205640180E-07 0.565737821E-07 0.147806361E-06 0.367738295E-06 0.873377928E-06 0.198427801E-05 0.432058459E-05 0.903067303E-05 0.181442374E-04 0.350844930E-04 0.634433090E-04 0.107515196E-03 0.171089967E-03 0.256114581E-03 0.361239101E-03 0.480716815E-03 0.604169327E-03 0.717564835E-03 0.805419753E-03 0.853832811E-03 0.853622681E-03 0.802746334E-03 0.707249390E-03 0.580383814E-03 0.439959636E-03 0.304531597E-03 0.189371014E-03 0.103376391E-03 0.479015289E-04 0.179073359E-04 0.497905057E-05 0.891517175E-06 0.742804147E-07 0.211100682E-12
0.911269012E-06 0.558704869E-05 0.219601243E-04 0.637805497E-04 0.148466032E-03 0.291857199E-03 0.501889328E-03 0.773715612E-03 0.108811317E-02 0.141372322E-02 0.171247043E-02 0.194671657E-02 0.208642264E-02 0.211471925E-02 0.203073164E-02 0.184914807E-02 0.159673626E-02 0.130671205E-02 0.101234787E-02 0.741348427E-03 0.512220256E-03 0.333213451E-03 0.203621588E-03 0.116599498E-03 0.624051827E-04 0.320217623E-04 0.157326322E-04 0.738975632E-05 0.331261595E-05 0.141432679E-05 0.573802765E-06 0.220627456E-06 0.801534270E-07 0.274181264E-07 0.879562911E-08 0.263391331E-08 0.732337135E-09 0.187876714E-09 0.441445873E-10 0.941667317E-11 0.180428198E-11 0.306476280E-12 0.453925634E-13 0.573746618E-14 0.624038183E-15 0.773882504E-14 0.157668594E-11 0.196083955E-09 0.137071812E-07 0.190752196E-07 0.352141261E-09 0.353483627E-11 0.215871497E-13 0.206453746E-15 0.120943239E-14 0.981675272E-14 0.680722229E-13 0.411985225E-12 0.221261703E-11 0.106845912E-10 0.468897005E-10 0.188670288E-09 0.701224245E-09 0.242254172E-08 0.782145992E-08 0.237096245E-07 0.677535539E-07 0.183160637E-06 0.469842831E-06 0.114670706E-05 0.266896586E-05 0.593614959E-05 0.126386931E-04 0.257985266E-04 0.505532189E-04 0.952017144E-04 0.167834674E-03 0.277597312E-03 0.431662076E-03 0.632262556E-03 0.873816200E-03 0.114115782E-02 0.140982668E-02 0.164887507E-02 0.182592636E-02 0.191347941E-02 0.189495063E-02 0.176893210E-02 0.155042275E-02 0.126853504E-02 0.960941019E-03 0.666239066E-03 0.415997260E-03 0.228626508E-03 0.106973901E-03 0.405253631E-04 0.114698923E-04 0.210280450E-05 0.180730538E-06 0.506453332E-12