<?xml version="1.0"?>
<VTKFile type="StructuredGrid">
<StructuredGrid WholeExtent="     0   100     0   100     0     0">
<Piece Extent="     0   100     0   100     0     0">
<Points>
<DataArray type="Float32" NumberOfComponents="3"/>
0.000000000E+00 0.000000000E+00 0.000000000E+00 0.199999996E-01 0.000000000E+00 0.000000000E+00 0.399999991E-01 0.000000000E+00 0.000000000E+00 0.599999987E-01 0.000000000E+00 0.000000000E+00 0.799999982E-01 0.000000000E+00 0.000000000E+00 0.100000001E+00 0.000000000E+00 0.000000000E+00 0.119999997E+00 0.000000000E+00 0.000000000E+00 0.140000001E+00 0.000000000E+00 0.000000000E+00 0.159999996E+00 0.000000000E+00 0.000000000E+00 0.180000007E+00 0.000000000E+00 0.000000000E+00 0.200000003E+00 0.000000000E+00 0.000000000E+00 0.219999999E+00 0.000000000E+00 0.000000000E+00 0.239999995E+00 0.000000000E+00 0.000000000E+00 0.259999990E+00 0.000000000E+00 0.000000000E+00 0.280000001E+00 0.000000000E+00 0.000000000E+00 0.300000012E+00 0.000000000E+00 0.000000000E+00 0.319999993E+00 0.000000000E+00 0.000000000E+00 0.340000004E+00 0.000000000E+00 0.000000000E+00 0.360000014E+00 0.000000000E+00 0.000000000E+00 0.379999995E+00 0.000000000E+00 0.000000000E+00 0.400000006E+00 0.000000000E+00 0.000000000E+00 0.419999987E+00 0.000000000E+00 0.000000000E+00 0.439999998E+00 0.000000000E+00 0.000000000E+00 0.460000008E+00 0.000000000E+00 0.000000000E+00 0.479999989E+00 0.000000000E+00 0.000000000E+00 0.500000000E+00 0.000000000E+00 0.000000000E+00 0.519999981E+00 0.000000000E+00 0.000000000E+00 0.540000021E+00 0.000000000E+00 0.000000000E+00 0.560000002E+00 0.000000000E+00 0.000000000E+00 0.579999983E+00 0.000000000E+00 0.000000000E+00 0.600000024E+00 0.000000000E+00 0.000000000E+00 0.620000005E+00 0.000000000E+00 0.000000000E+00 0.639999986E+00 0.000000000E+00 0.000000000E+00 0.660000026E+00 0.000000000E+00 0.000000000E+00 0.680000007E+00 0.000000000E+00 0.000000000E+00 0.699999988E+00 0.000000000E+00 0.000000000E+00 0.720000029E+00 0.000000000E+00 0.000000000E+00 0.740000010E+00 0.000000000E+00 0.000000000E+00 0.759999990E+00 0.000000000E+00 0.000000000E+00 0.779999971E+00 0.000000000E+00 0.000000000E+00 0.800000012E+00 0.000000000E+00 0.000000000E+00 0.819999993E+00 0.000000000E+00 0.000000000E+00 0.839999974E+00 0.000000000E+00 0.000000000E+00 0.860000014E+00 0.000000000E+00 0.000000000E+00 0.879999995E+00 0.000000000E+00 0.000000000E+00 0.899999976E+00 0.000000000E+00 0.000000000E+00 0.920000017E+00 0.000000000E+00 0.000000000E+00 0.939999998E+00 0.000000000E+00 0.000000000E+00 0.959999979E+00 0.000000000E+00 0.000000000E+00 0.980000019E+00 0.000000000E+00 0.000000000E+00 0.100000000E+01 0.000000000E+00 0.000000000E+00 0.101999998E+01 0.000000000E+00 0.000000000E+00 0.103999996E+01 0.000000000E+00 0.000000000E+00 0.105999994E+01 0.000000000E+00 0.000000000E+00 0.108000004E+01 0.000000000E+00 0.000000000E+00 0.110000002E+01 0.000000000E+00 0.000000000E+00 0.112000000E+01 0.000000000E+00 0.000000000E+00 0.113999999E+01 0.000000000E+00 0.000000000E+00 0.115999997E+01 0.000000000E+00 0.000000000E+00 0.117999995E+01 0.000000000E+00 0.000000000E+00 0.120000005E+01 0.000000000E+00 0.000000000E+00 0.122000003E+01 0.000000000E+00 0.000000000E+00 0.124000001E+01 0.000000000E+00 0.000000000E+00 0.125999999E+01 0.000000000E+00 0.000000000E+00 0.127999997E+01 0.000000000E+00 0.000000000E+00 0.129999995E+01 0.000000000E+00 0.000000000E+00 0.132000005E+01 0.000000000E+00 0.000000000E+00 0.134000003E+01 0.000000000E+00 0.000000000E+00 0.136000001E+01 0.000000000E+00 0.000000000E+00 0.138000000E+01 0.000000000E+00 0.000000000E+00 0.139999998E+01 0.000000000E+00 0.000000000E+00 0.141999996E+01 0.000000000E+00 0.000000000E+00 0.144000006E+01 0.000000000E+00 0.000000000E+00 0.146000004E+01 0.000000000E+00 0.000000000E+00 0.148000002E+01 0.000000000E+00 0.000000000E+00 0.150000000E+01 0.000000000E+00 0.000000000E+00 0.151999998E+01 0.000000000E+00 0.000000000E+00 0.153999996E+01 0.000000000E+00 0.000000000E+00 0.155999994E+01 0.000000000E+00 0.000000000E+00 0.158000004E+01 0.000000000E+00 0.000000000E+00 0.160000002E+01 0.000000000E+00 0.000000000E+00 0.162000000E+01 0.000000000E+00 0.000000000E+00 0.163999999E+01 0.000000000E+00 0.000000000E+00 0.165999997E+01 0.000000000E+00 0.000000000E+00 0.167999995E+01 0.000000000E+00 0.000000000E+00 0.170000005E+01 0.000000000E+00 0.000000000E+00 0.172000003E+01 0.000000000E+00 0.000000000E+00 0.174000001E+01 0.000000000E+00 0.000000000E+00 0.175999999E+01 0.000000000E+00 0.000000000E+00 0.177999997E+01 0.000000000E+00 0.000000000E+00 0.179999995E+01 0.000000000E+00 0.000000000E+00 0.182000005E+01 0.000000000E+00 0.000000000E+00 0.184000003E+01 0.000000000E+00 0.000000000E+00 0.186000001E+01 0.000000000E+00 0.000000000E+00 0.188000000E+01 0.000000000E+00 0.000000000E+00 0.189999998E+01 0.000000000E+00 0.000000000E+00 0.191999996E+01 0.000000000E+00 0.000000000E+00 0.194000006E+01 0.000000000E+00 0.000000000E+00 0.196000004E+01 0.000000000E+00 0.000000000E+00 0.198000002E+01 0.000000000E+00 0.000000000E+00 0.200000000E+01 0.000000000E+00 0.000000000E+00
0.000000000E+00 0.999999978E-02 0.000000000E+00 0.199999996E-01 0.999999978E-02 0.000000000E+00 0.399999991E-01 0.999999978E-02 0.000000000E+00 0.599999987E-01 0.999999978E-02 0.000000000E+00 0.799999982E-01 0.999999978E-02 0.000000000E+00 0.100000001E+00 0.999999978E-02 0.000000000E+00 0.119999997E+00 0.999999978E-02 0.000000000E+00 0.140000001E+00 0.999999978E-02 0.000000000E+00 0.159999996E+00 0.999999978E-02 0.000000000E+00 0.180000007E+00 0.999999978E-02 0.000000000E+00 0.200000003E+00 0.999999978E-02 0.000000000E+00 0.219999999E+00 0.999999978E-02 0.000000000E+00 0.239999995E+00 0.999999978E-02 0.000000000E+00 0.259999990E+00 0.999999978E-02 0.000000000E+00 0.280000001E+00 0.999999978E-02 0.000000000E+00 0.300000012E+00 0.999999978E-02 0.000000000E+00 0.319999993E+00 0.999999978E-02 0.000000000E+00 0.340000004E+00 0.999999978E-02 0.000000000E+00 0.360000014E+00 0.999999978E-02 0.000000000E+00 0.379999995E+00 0.999999978E-02 0.000000000E+00 0.400000006E+00 0.999999978E-02 0.000000000E+00 0.419999987E+00 0.999999978E-02 0.000000000E+00 0.439999998E+00 0.999999978E-02 0.000000000E+00 0.460000008E+00 0.999999978E-02 0.000000000E+00 0.479999989E+00 0.999999978E-02 0.000000000E+00 0.500000000E+00 0.999999978E-02 0.000000000E+00 0.519999981E+00 0.999999978E-02 0.000000000E+00 0.540000021E+00 0.999999978E-02 0.000000000E+00 0.560000002E+00 0.999999978E-02 0.000000000E+00 0.579999983E+00 0.999999978E-02 0.000000000E+00 0.600000024E+00 0.999999978E-02 0.000000000E+00 0.620000005E+00 0.999999978E-02 0.000000000E+00 0.639999986E+00 0.999999978E-02 0.000000000E+00 0.660000026E+00 0.999999978E-02 0.000000000E+00 0.680000007E+00 0.999999978E-02 0.000000000E+00 0.699999988E+00 0.999999978E-02 0.000000000E+00 0.720000029E+00 0.999999978E-02 0.000000000E+00 0.740000010E+00 0.999999978E-02 0.000000000E+00 0.759999990E+00 0.999999978E-02 0.000000000E+00 0.779999971E+00 0.999999978E-02 0.000000000E+00 0.800000012E+00 0.999999978E-02 0.000000000E+00 0.819999993E+00 0.999999978E-02 0.000000000E+00 0.839999974E+00 0.999999978E-02 0.000000000E+00 0.860000014E+00 0.999999978E-02 0.000000000E+00 0.879999995E+00 0.999999978E-02 0.000000000E+00 0.899999976E+00 0.999999978E-02 0.000000000E+00 0.920000017E+00 0.999999978E-02 0.000000000E+00 0.939999998E+00 0.999999978E-02 0.000000000E+00 0.959999979E+00 0.999999978E-02 0.000000000E+00 0.980000019E+00 0.999999978E-02 0.000000000E+00 0.100000000E+01 0.999999978E-02 0.000000000E+00 0.101999998E+01 0.999999978E-02 0.000000000E+00 0.103999996E+01 0.999999978E-02 0.000000000E+00 0.105999994E+01 0.999999978E-02 0.000000000E+00 0.108000004E+01 0.999999978E-02 0.000000000E+00 0.110000002E+01 0.999999978E-02 0.000000000E+00 0.112000000E+01 0.999999978E-02 0.000000000E+00 0.113999999E+01 0.999999978E-02 0.000000000E+00 0.115999997E+01 0.999999978E-02 0.000000000E+00 0.117999995E+01 0.999999978E-02 0.000000000E+00 0.120000005E+01 0.999999978E-02 0.000000000E+00 0.122000003E+01 0.999999978E-02 0.000000000E+00 0.124000001E+01 0.999999978E-02 0.000000000E+00 0.125999999E+01 0.999999978E-02 0.000000000E+00 0.127999997E+01 0.999999978E-02 0.000000000E+00 0.129999995E+01 0.999999978E-02 0.000000000E+00 0.132000005E+01 0.999999978E-02 0.000000000E+00 0.134000003E+01 0.999999978E-02 0.000000000E+00 0.136000001E+01 0.999999978E-02 0.000000000E+00 0.138000000E+01 0.999999978E-02 0.000000000E+00 0.139999998E+01 0.999999978E-02 0.000000000E+00 0.141999996E+01 0.999999978E-02 0.000000000E+00 0.144000006E+01 0.999999978E-02 0.000000000E+00 0.146000004E+01 0.999999978E-02 0.000000000E+00 0.148000002E+01 0.999999978E-02 0.000000000E+00 0.150000000E+01 0.999999978E-02 0.000000000E+00 0.151999998E+01 0.999999978E-02 0.000000000E+00 0.153999996E+01 0.999999978E-02 0.000000000E+00 0.155999994E+01 0.999999978E-02 0.000000000E+00 0.158000004E+01 0.999999978E-02 0.000000000E+00 0.160000002E+01 0.999999978E-02 0.000000000E+00 0.162000000E+01 0.999999978E-02 0.000000000E+00 0.163999999E+01 0.999999978E-02 0.000000000E+00 0.165999997E+01 0.999999978E-02 0.000000000E+00 0.167999995E+01 0.999999978E-02 0.000000000E+00 0.170000005E+01 0.999999978E-02 0.000000000E+00 0.172000003E+01 0.999999978E-02 0.000000000E+00 0.174000001E+01 0.999999978E-02 0.000000000E+00 0.175999999E+01 0.999999978E-02 0.000000000E+00 0.177999997E+01 0.999999978E-02 0.000000000E+00 0.179999995E+01 0.999999978E-02 0.000000000E+00 0.182000005E+01 0.999999978E-02 0.000000000E+00 0.184000003E+01 0.999999978E-02 0.000000000E+00 0.186000001E+01 0.999999978E-02 0.000000000E+00 0.188000000E+01 0.999999978E-02 0.000000000E+00 0.189999998E+01 0.999999978E-02 0.000000000E+00 0.191999996E+01 0.999999978E-02 0.000000000E+00 0.194000006E+01 0.999999978E-02 0.000000000E+00 0.196000004E+01 0.999999978E-02 0.000000000E+00 0.198000002E+01 0.999999978E-02 0.000000000E+00 0.200000000E+01 0.999999978E-02 0.000000000E+00
[...]
<CellData Scalars="Temperature, U, V">
<DataArray type="Float32" Name="Temp, K"/>
0.000000000E+00 0.000000000E+00 0.000000000E+00 0.280259693E-42 0.157392442E-39 0.318826958E-37 0.266784143E-35 0.103157516E-33 0.200104844E-32 0.206987143E-31 0.120018056E-30 0.408687553E-30 0.857880855E-30 0.116915364E-29 0.108988874E-29 0.728680908E-30 0.363462148E-30 0.139525784E-30 0.422159165E-31 0.102498736E-31 0.202370481E-32 0.328038596E-33 0.439479111E-34 0.488706933E-35 0.452165428E-36 0.393502826E-37 0.320336969E-38 0.242660052E-39 0.170538023E-40 0.111823617E-41 0.000000000E+00 0.000000000E+00 0.000000000E+00 0.000000000E+00 0.000000000E+00 0.000000000E+00 0.000000000E+00 0.238220739E-43 0.980908925E-43 0.542770539E-39 0.664506268E-33 0.572784325E-27 0.261813872E-21 0.578390986E-19 0.987150831E-14 0.897698853E-12 0.387759963E-10 0.945822642E-09 0.128465052E-07 0.179280875E-07 0.180913773E-08 0.997715105E-10 0.327493024E-11 0.621864891E-13 0.548807417E-15 0.341008075E-20 0.135475943E-22 0.303553191E-28 0.361305551E-34 0.303605325E-40 0.770714155E-43 0.154142831E-43 0.000000000E+00 0.000000000E+00 0.000000000E+00 0.000000000E+00 0.000000000E+00 0.000000000E+00 0.000000000E+00 0.104817125E-41 0.150275247E-40 0.210369932E-39 0.273468440E-38 0.332077328E-37 0.378654746E-36 0.407634737E-35 0.366208161E-34 0.273786019E-33 0.169534681E-32 0.863221705E-32 0.357674366E-31 0.118877791E-30 0.310798943E-30 0.622732567E-30 0.924120150E-30 0.972650105E-30 0.689670341E-30 0.311837657E-30 0.853144883E-31 0.134663002E-31 0.117152825E-32 0.534390408E-34 0.120079969E-35 0.122045515E-37 0.498315747E-40 0.700649232E-43 0.000000000E+00 0.000000000E+00 0.000000000E+00 0.000000000E+00
0.000000000E+00 0.000000000E+00 0.210194770E-42 0.231895278E-39 0.796770572E-37 0.108717529E-34 0.666880904E-33 0.201652280E-31 0.321346630E-30 0.284311835E-29 0.146122772E-28 0.455935537E-28 0.904575350E-28 0.119770730E-27 0.110960263E-27 0.750388529E-28 0.383734620E-28 0.152620138E-28 0.482510940E-29 0.123294734E-29 0.257832625E-30 0.445289691E-31 0.639194596E-32 0.765802473E-33 0.767545809E-34 0.725296731E-35 0.642570949E-36 0.530797733E-37 0.406679095E-38 0.287529629E-39 0.186610916E-40 0.111823617E-41 0.700649232E-43 0.000000000E+00 0.000000000E+00 0.000000000E+00 0.126116862E-43 0.546506401E-43 0.642355216E-41 0.826152195E-35 0.825457261E-29 0.576781094E-23 0.216120787E-17 0.367129384E-15 0.480563804E-13 0.312098698E-11 0.118406548E-09 0.272036238E-08 0.360426036E-07 0.500800503E-07 0.506991427E-08 0.287921631E-09 0.100938910E-10 0.220999786E-12 0.285749508E-14 0.195309767E-16 0.992973392E-19 0.270105210E-24 0.395263737E-30 0.406899990E-36 0.313890856E-42 0.560519386E-43 0.980908925E-44 0.000000000E+00 0.000000000E+00 0.000000000E+00 0.000000000E+00 0.104817125E-41 0.173340620E-40 0.259573725E-39 0.358552620E-38 0.459109602E-37 0.547459912E-36 0.611057105E-35 0.641866292E-34 0.638012232E-33 0.532085057E-32 0.371303254E-31 0.215806257E-30 0.103741721E-29 0.408408303E-29 0.129896662E-28 0.327774649E-28 0.640664388E-28 0.940401499E-28 0.997105872E-28 0.729190359E-28 0.349762600E-28 0.104714180E-28 0.186891978E-29 0.190385933E-30 0.105798870E-31 0.304029836E-33 0.421216848E-35 0.255034247E-37 0.588475290E-40 0.700649232E-43 0.000000000E+00 0.000000000E+00 0.000000000E+00
0.000000000E+00 0.700649232E-43 0.144113738E-39 0.866448849E-37 0.196346601E-34 0.192704262E-32 0.910213664E-31 0.222932240E-29 0.299541660E-28 0.231271253E-27 0.107044323E-26 0.309886789E-26 0.586442317E-26 0.758886194E-26 0.700982031E-26 0.480094545E-26 0.251666793E-26 0.103584601E-26 0.341543670E-27 0.916229694E-28 0.202333656E-28 0.371030291E-29 0.568471325E-30 0.730700865E-31 0.789794230E-32 0.806679509E-33 0.774292332E-34 0.694539948E-35 0.578983029E-36 0.446147871E-37 0.316184501E-38 0.205059011E-39 0.121618694E-40 0.699247934E-42 0.000000000E+00 0.420389539E-44 0.546506401E-43 0.700649232E-43 0.727750008E-37 0.678931389E-31 0.428564125E-25 0.135666248E-19 0.957336489E-17 0.142369298E-14 0.135083866E-12 0.754466715E-11 0.264463562E-09 0.582525983E-08 0.757026655E-07 0.104599330E-06 0.106162013E-07 0.615880957E-09 0.225760452E-10 0.537280615E-12 0.815034075E-14 0.752882919E-16 0.438043833E-18 0.543294488E-21 0.176391475E-26 0.289540752E-32 0.323934523E-38 0.896831017E-43 0.280259693E-43 0.000000000E+00 0.000000000E+00 0.699247934E-42 0.120217395E-40 0.195901525E-39 0.292449728E-38 0.401563319E-37 0.509311680E-36 0.599606402E-35 0.658663120E-34 0.678768504E-33 0.659803657E-32 0.608269367E-31 0.472889058E-30 0.309194398E-29 0.169253928E-28 0.770446006E-28 0.288886988E-27 0.880911882E-27 0.214779611E-26 0.409567607E-26 0.593851023E-26 0.632134851E-26 0.473822793E-26 0.238841024E-26 0.772719397E-27 0.153494943E-27 0.179492006E-28 0.118424088E-29 0.420319928E-31 0.756071538E-33 0.635736818E-35 0.222365958E-37 0.273967863E-40 0.000000000E+00 0.000000000E+00 0.000000000E+00
0.000000000E+00 0.403265672E-40 0.449238351E-37 0.174599166E-34 0.279037912E-32 0.207660410E-30 0.783687150E-29 0.159696498E-27 0.184631258E-26 0.126404267E-25 0.533726957E-25 0.144813982E-24 0.263339889E-24 0.334641772E-24 0.308991935E-24 0.214533410E-24 0.115261022E-24 0.490477349E-25 0.168396905E-25 0.473259304E-26 0.110084201E-26 0.213704822E-27 0.348307981E-28 0.478543299E-29 0.555537831E-30 0.610688241E-31 0.632301864E-32 0.613249479E-33 0.554007503E-34 0.463566536E-35 0.357294944E-36 0.252319763E-37 0.162432072E-38 0.948412814E-40 0.496199786E-41 0.306884364E-42 0.350324616E-43 0.572969923E-39 0.514440133E-33 0.321377306E-27 0.104081323E-21 0.795763324E-19 0.283339138E-16 0.371786562E-14 0.303232022E-12 0.154811667E-10 0.514093601E-09 0.109715268E-07 0.140328652E-06 0.192716627E-06 0.196098160E-07 0.115648480E-08 0.437896559E-10 0.110187380E-11 0.183425120E-13 0.195526042E-15 0.129136201E-17 0.317549508E-20 0.368072007E-23 0.118656551E-28 0.199737698E-34 0.235698402E-40 0.504467447E-43 0.354528511E-42 0.538238740E-41 0.976368718E-40 0.160349462E-38 0.240232247E-37 0.329637639E-36 0.416328222E-35 0.486454976E-34 0.528650345E-33 0.537256681E-32 0.513399626E-31 0.463794258E-30 0.398164387E-29 0.289634405E-28 0.178032820E-27 0.920582476E-27 0.397818163E-26 0.142371906E-25 0.416883961E-25 0.983034641E-25 0.182904082E-24 0.261683627E-24 0.278878995E-24 0.213184458E-24 0.112072889E-24 0.387828457E-25 0.846467088E-26 0.111833639E-26 0.858584926E-28 0.366508418E-29 0.825215901E-31 0.914633144E-33 0.452974172E-35 0.865689961E-38 0.517219263E-41 0.000000000E+00 0.000000000E+00
0.489193294E-41 0.112574517E-37 0.794599958E-35 0.213488931E-32 0.254895864E-30 0.149613551E-28 0.464076653E-27 0.803567614E-26 0.812646726E-25 0.499994044E-24 0.194709528E-23 0.499406343E-23 0.878065612E-23 0.110005257E-22 0.101749417E-22 0.716689362E-23 0.394553594E-23 0.173419770E-23 0.619051052E-24 0.181906542E-24 0.444641264E-25 0.911287881E-26 0.157508203E-26 0.230504324E-27 0.286304833E-28 0.337348221E-29 0.375164688E-30 0.391696170E-31 0.381819704E-32 0.345523937E-33 0.288607453E-34 0.221238490E-35 0.154775400E-36 0.982721645E-38 0.562985671E-39 0.289424185E-40 0.534735494E-41 0.318636814E-35 0.181869289E-29 0.551039360E-24 0.668520414E-21 0.282441104E-18 0.693306989E-16 0.813522122E-14 0.601635278E-12 0.288502139E-10 0.920027166E-09 0.191439788E-07 0.241457172E-06 0.329558361E-06 0.336358923E-07 0.201087214E-08 0.780898332E-10 0.204740652E-11 0.363413320E-13 0.425763043E-15 0.314952596E-17 0.112505796E-19 0.236576277E-22 0.175749273E-25 0.615453518E-31 0.115349071E-36 0.171378802E-41 0.327259243E-40 0.605196985E-39 0.100800794E-37 0.152367599E-36 0.210105194E-35 0.265690192E-34 0.309761129E-33 0.334788248E-32 0.337295732E-31 0.318519567E-30 0.283451015E-29 0.238940830E-28 0.191750918E-27 0.130964238E-26 0.759150431E-26 0.371821422E-25 0.152896811E-24 0.523285310E-24 0.147353804E-23 0.336363742E-23 0.610755677E-23 0.861513811E-23 0.917128268E-23 0.712029087E-23 0.387891269E-23 0.142325999E-23 0.337593172E-24 0.497267993E-25 0.437051822E-26 0.219742829E-27 0.602156780E-29 0.846044544E-31 0.560479839E-33 0.154679728E-35 0.144631097E-38 0.280259693E-42 0.000000000E+00
0.127787490E-38 0.183112841E-35 0.875616558E-33 0.173243723E-30 0.161127362E-28 0.768589578E-27 0.200297392E-25 0.299708275E-24 0.268786624E-23 0.150330651E-22 0.545026082E-22 0.133118410E-21 0.227479212E-21 0.281888552E-21 0.261634441E-21 0.187062044E-21 0.105492192E-21 0.478484024E-22 0.177334354E-22 0.543847966E-23 0.139386594E-23 0.300829197E-24 0.549813125E-25 0.854301463E-26 0.113128403E-26 0.142330075E-27 0.169316085E-28 0.189483953E-29 0.198426127E-30 0.193351864E-31 0.174302523E-32 0.144507343E-33 0.109524670E-34 0.754360890E-36 0.469328207E-37 0.262080788E-38 0.196138415E-37 0.950297404E-32 0.248731541E-26 0.406233389E-23 0.257193818E-20 0.784849386E-18 0.150955724E-15 0.160609204E-13 0.110340231E-11 0.504071333E-10 0.155579316E-08 0.316821698E-07 0.394442537E-06 0.535119568E-06 0.548216050E-07 0.331734862E-08 0.131565481E-09 0.356434153E-11 0.664703142E-13 0.837148073E-15 0.684084943E-17 0.312441627E-19 0.911572006E-22 0.130050549E-24 0.737503817E-28 0.304765323E-33 0.838892931E-39 0.295863712E-38 0.502796539E-37 0.771555473E-36 0.107545931E-34 0.136937619E-33 0.160177048E-32 0.173098082E-31 0.173803787E-30 0.163049191E-29 0.143685990E-28 0.119563031E-27 0.944092207E-27 0.710743569E-26 0.457246799E-25 0.250668195E-24 0.116587360E-23 0.457202679E-23 0.149913391E-22 0.406541992E-22 0.899165559E-22 0.159372092E-21 0.221501212E-21 0.235109024E-21 0.184737176E-21 0.103722562E-21 0.400524908E-22 0.102275398E-22 0.166057015E-23 0.164825312E-24 0.959911449E-26 0.313239024E-27 0.541589631E-29 0.460402963E-31 0.172402364E-33 0.237484755E-36 0.819815654E-40 0.000000000E+00
0.197662924E-36 0.188015202E-33 0.652901595E-31 0.994203481E-29 0.743512044E-27 0.294900858E-25 0.656859725E-24 0.861311547E-23 0.693132697E-22 0.355919955E-21 0.121118790E-20 0.283476977E-20 0.472904932E-20 0.581239743E-20 0.542105780E-20 0.393586470E-20 0.227292551E-20 0.106290649E-20 0.408445696E-21 0.130507899E-21 0.350004205E-22 0.793596358E-23 0.152961747E-23 0.251595969E-24 0.354030667E-25 0.473897866E-26 0.600714883E-27 0.717635743E-28 0.803850960E-29 0.839721254E-30 0.813409530E-31 0.726295421E-32 0.594122579E-33 0.442451568E-34 0.298059026E-35 0.180571993E-36 0.561140595E-34 0.123668160E-28 0.213983204E-25 0.175966879E-22 0.769155993E-20 0.188040198E-17 0.303204920E-15 0.296137592E-13 0.191551137E-11 0.840494341E-10 0.252249066E-08 0.503819564E-07 0.619403863E-06 0.835435287E-06 0.859840341E-07 0.526276489E-08 0.212630108E-09 0.592284858E-11 0.115065130E-12 0.153863588E-14 0.137187673E-16 0.748822504E-19 0.273240491E-21 0.565927778E-24 0.638830337E-27 0.355139836E-30 0.179579595E-35 0.203047811E-36 0.318379101E-35 0.451366212E-34 0.582106915E-33 0.687017233E-32 0.746448082E-31 0.750989016E-30 0.703616011E-29 0.617273668E-28 0.509709156E-27 0.398121844E-26 0.295522518E-25 0.209397729E-24 0.127269799E-23 0.661615827E-23 0.292905790E-22 0.109765640E-21 0.345407607E-21 0.903271232E-21 0.193741310E-20 0.335307153E-20 0.458958659E-20 0.484987747E-20 0.384558367E-20 0.221500853E-20 0.894343397E-21 0.243836754E-21 0.432082500E-22 0.478725920E-23 0.318495910E-24 0.121670678E-25 0.253051547E-27 0.267494253E-29 0.130070154E-31 0.246501280E-34 0.127941647E-37 0.000000000E+00
0.194006288E-34 0.132193744E-31 0.349143338E-29 0.423208083E-27 0.260657269E-25 0.874752968E-24 0.168920111E-22 0.196457844E-21 0.143334769E-20 0.681672919E-20 0.219288844E-19 0.494499750E-19 0.808378603E-19 0.987756532E-19 0.926811609E-19 0.683489647E-19 0.404037243E-19 0.194630606E-19 0.774477010E-20 0.257410912E-20 0.720980093E-21 0.171364217E-21 0.347466060E-22 0.603330957E-23 0.899371936E-24 0.127660078E-24 0.171812349E-25 0.218257089E-26 0.260432071E-27 0.290393793E-28 0.300922397E-29 0.288109340E-30 0.253291467E-31 0.203164399E-32 0.147685012E-33 0.100584298E-34 0.707307411E-31 0.122722013E-27 0.106218346E-24 0.584583544E-22 0.197285549E-19 0.407740154E-17 0.573842693E-15 0.519830083E-13 0.319252741E-11 0.135227732E-09 0.395757160E-08 0.776227722E-07 0.942367478E-06 0.126398766E-05 0.130813845E-06 0.809711320E-08 0.332802591E-09 0.950253851E-11 0.191309764E-12 0.269468519E-14 0.259456532E-16 0.162561321E-18 0.702973516E-21 0.189009594E-23 0.319602990E-26 0.356180920E-29 0.207343575E-32 0.108535946E-34 0.157336372E-33 0.206792360E-32 0.247714569E-31 0.272140884E-30 0.275863829E-29 0.259531037E-28 0.227874394E-27 0.187717272E-26 0.145805978E-25 0.107285749E-24 0.751135851E-24 0.502471541E-23 0.289322626E-22 0.142979335E-21 0.603840030E-21 0.216657444E-20 0.655349148E-20 0.165474735E-19 0.344493099E-19 0.582372310E-19 0.784791548E-19 0.824575898E-19 0.658164543E-19 0.387363220E-19 0.162623288E-19 0.469993078E-20 0.901042833E-21 0.110300387E-21 0.828374159E-23 0.365276545E-24 0.898108049E-26 0.115272661E-27 0.703944275E-30 0.175270763E-32 0.126852685E-35 0.142932443E-42
0.131327294E-32 0.672565723E-30 0.140044333E-27 0.138560075E-25 0.715290258E-24 0.206083033E-22 0.349299102E-21 0.364151563E-20 0.243080432E-19 0.107898053E-18 0.330175294E-18 0.720742682E-18 0.115831228E-17 0.140982585E-17 0.133207729E-17 0.997993409E-18 0.603645960E-18 0.299280279E-18 0.123169416E-18 0.425180108E-19 0.124149462E-19 0.308684741E-20 0.656913985E-21 0.120102912E-21 0.189124164E-22 0.283784546E-23 0.404151857E-24 0.543952813E-25 0.688735043E-26 0.816363666E-27 0.901080570E-28 0.920945319E-29 0.866296737E-30 0.745191067E-31 0.582212470E-32 0.913081767E-33 0.809499013E-30 0.693971974E-27 0.398898314E-24 0.164955511E-21 0.456174372E-19 0.823142896E-17 0.103763961E-14 0.879121266E-13 0.515560641E-11 0.211495835E-09 0.604621242E-08 0.116526927E-06 0.139664564E-05 0.186339491E-05 0.194103734E-06 0.121522286E-07 0.507737463E-09 0.148329127E-10 0.308408708E-12 0.455093862E-14 0.469222305E-16 0.328813134E-18 0.163153379E-20 0.536560508E-23 0.121067022E-25 0.203768383E-28 0.241006067E-31 0.474969329E-33 0.618824601E-32 0.757064676E-31 0.845977517E-30 0.868971165E-29 0.825468079E-28 0.729337537E-27 0.602597672E-26 0.467936697E-25 0.343128511E-24 0.238645826E-23 0.158079884E-22 0.100119292E-21 0.547554085E-21 0.257831955E-20 0.104090009E-19 0.358226268E-19 0.104316374E-18 0.254630879E-18 0.514957413E-18 0.850663236E-18 0.112833433E-17 0.117756708E-17 0.944173936E-18 0.565881495E-18 0.245812849E-18 0.748277986E-19 0.154005973E-19 0.206416318E-20 0.173173220E-21 0.870754291E-23 0.249477952E-24 0.382021840E-26 0.285757779E-28 0.902096229E-31 0.867756186E-34 0.108530566E-40
0.646764926E-31 0.258683808E-28 0.435986936E-26 0.358327864E-24 0.157382500E-22 0.394253293E-21 0.592901333E-20 0.559283502E-19 0.344358779E-18 0.143643532E-17 0.420423397E-17 0.892035047E-17 0.141328324E-16 0.171629753E-16 0.163421971E-16 0.124394704E-16 0.769540765E-17 0.392344669E-17 0.166805851E-17 0.597175857E-18 0.181471652E-18 0.471093931E-19 0.104991822E-19 0.201629394E-20 0.334505170E-21 0.529073768E-22 0.794818304E-23 0.112957802E-23 0.151212494E-24 0.189785004E-25 0.222205881E-26 0.241384576E-27 0.241866483E-28 0.222131023E-29 0.185731411E-30 0.212013204E-31 0.525749835E-29 0.294184701E-26 0.125941417E-23 0.416593582E-21 0.979088002E-19 0.157541908E-16 0.181018988E-14 0.144392826E-12 0.811877388E-11 0.323247068E-09 0.903604214E-08 0.171158987E-06 0.202449905E-05 0.268744225E-05 0.282032175E-06 0.178657871E-07 0.758585972E-09 0.226483571E-10 0.485231755E-12 0.747150399E-14 0.819366403E-16 0.631006252E-18 0.351736664E-20 0.136423428E-22 0.385850727E-25 0.874650853E-28 0.159989389E-30 0.158983730E-31 0.197012407E-30 0.225323440E-29 0.235928088E-28 0.227594267E-27 0.203482684E-26 0.169544004E-25 0.132332033E-24 0.972202139E-24 0.675295069E-23 0.445328232E-22 0.279900597E-21 0.168286059E-20 0.876284445E-20 0.394022250E-19 0.152356872E-18 0.503787993E-18 0.141438662E-17 0.334142111E-17 0.656994984E-17 0.106094483E-16 0.138498150E-16 0.143449083E-16 0.115333503E-16 0.701848770E-17 0.314114683E-17 0.100151275E-17 0.219762036E-18 0.319903313E-19 0.297038942E-20 0.168504236E-21 0.555564759E-23 0.100004667E-24 0.900264975E-27 0.351005811E-29 0.432046116E-32 0.657639178E-39
0.242121029E-29 0.777489107E-27 0.107913004E-24 0.748331520E-23 0.283347856E-21 0.623985957E-20 0.840553926E-19 0.723462038E-18 0.413870307E-17 0.163227914E-16 0.459154525E-16 0.950287653E-16 0.148778253E-15 0.180522970E-15 0.173328233E-15 0.134046789E-15 0.847739095E-16 0.444100036E-16 0.194829489E-16 0.722379228E-17 0.228088374E-17 0.617065673E-18 0.143728112E-18 0.289272718E-19 0.504347812E-20 0.838574137E-21 0.132500650E-21 0.198209223E-22 0.279572206E-23 0.370184739E-24 0.457957144E-25 0.526574592E-26 0.559593727E-27 0.546257890E-28 0.486575405E-29 0.448947106E-30 0.255255081E-28 0.104146904E-25 0.353109090E-23 0.971302597E-21 0.198769162E-18 0.289415739E-16 0.306854753E-14 0.231659960E-12 0.125253011E-10 0.484698670E-09 0.132562024E-07 0.246775073E-06 0.287913826E-05 0.380351571E-05 0.402515695E-06 0.258120352E-07 0.111379339E-08 0.339629505E-10 0.748620404E-12 0.119930463E-13 0.139145027E-15 0.116317228E-17 0.717775394E-20 0.320457924E-22 0.109290417E-24 0.313806620E-27 0.817843988E-30 0.439196475E-30 0.515305916E-29 0.553447085E-28 0.545422253E-27 0.496283874E-26 0.419337996E-25 0.330782492E-24 0.244792137E-23 0.170726397E-22 0.112688124E-21 0.706684772E-21 0.422595024E-20 0.241799272E-19 0.120150879E-18 0.516966014E-18 0.191810301E-17 0.610377153E-17 0.165441185E-16 0.378701052E-16 0.724518962E-16 0.114423074E-15 0.146999233E-15 0.151000881E-15 0.121555766E-15 0.749168613E-16 0.344172184E-16 0.114366016E-16 0.265909843E-17 0.417350954E-18 0.425350262E-19 0.269673926E-20 0.101210381E-21 0.211396875E-23 0.225532529E-25 0.106721087E-27 0.163518141E-30 0.292753726E-37
0.711912120E-28 0.186634814E-25 0.216884467E-23 0.128660134E-21 0.424684018E-20 0.830065728E-19 0.101014542E-17 0.799316206E-17 0.427641061E-16 0.160332537E-15 0.435304975E-15 0.881521217E-15 0.136660412E-14 0.165872609E-14 0.160671128E-14 0.126239313E-14 0.815773408E-15 0.438752717E-15 0.198405477E-15 0.760867528E-16 0.249234994E-16 0.701468433E-17 0.170426079E-17 0.358705709E-18 0.655716153E-19 0.114320044E-19 0.189466305E-20 0.297446378E-21 0.440646752E-22 0.613441945E-23 0.798900491E-24 0.968507151E-25 0.108706866E-25 0.112301148E-26 0.106088996E-27 0.942332695E-29 0.103673483E-27 0.325851046E-25 0.908571258E-23 0.213324124E-20 0.386663561E-18 0.514881319E-16 0.508204522E-14 0.364618112E-12 0.189979803E-10 0.715208892E-09 0.191419911E-07 0.350134172E-06 0.402713567E-05 0.529551835E-05 0.565646928E-06 0.367411950E-07 0.161147284E-08 0.501722691E-10 0.113662660E-11 0.189033867E-13 0.231053568E-15 0.207795318E-17 0.140454008E-19 0.709608152E-22 0.284312940E-24 0.995981478E-27 0.405499735E-29 0.101294857E-28 0.112211865E-27 0.113681116E-26 0.105903875E-25 0.912693332E-25 0.731692106E-24 0.548436099E-23 0.386138452E-22 0.256474205E-21 0.161342205E-20 0.964825648E-20 0.550334571E-19 0.300375233E-18 0.142739331E-17 0.588822770E-17 0.210001636E-16 0.644108338E-16 0.168773022E-15 0.374725629E-15 0.698127096E-15 0.107876899E-14 0.136392316E-14 0.138877108E-14 0.111792891E-14 0.696285964E-15 0.327284663E-15 0.112847473E-15 0.276484491E-16 0.464820125E-17 0.516079535E-18 0.362614913E-19 0.153454343E-20 0.367819113E-22 0.458779316E-24 0.259239030E-26 0.486071992E-29 0.998778193E-36