<?xml version="1.0"?>
<VTKFile type="StructuredGrid">
<StructuredGrid WholeExtent="     0   100     0   100     0     0">
<Piece Extent="     0   100     0   100     0     0">
<Points>
<DataArray type="Float32" NumberOfComponents="3"/>
0.000000000E+00 0.000000000E+00 0.000000000E+00 0.199999996E-01 0.000000000E+00 0.000000000E+00 0.399999991E-01 0.000000000E+00 0.000000000E+00 0.599999987E-01 0.000000000E+00 0.000000000E+00 0.799999982E-01 0.000000000E+00 0.000000000E+00 0.100000001E+00 0.000000000E+00 0.000000000E+00 0.119999997E+00 0.000000000E+00 0.000000000E+00 0.140000001E+00 0.000000000E+00 0.000000000E+00 0.159999996E+00 0.000000000E+00 0.000000000E+00 0.180000007E+00 0.000000000E+00 0.000000000E+00 0.200000003E+00 0.000000000E+00 0.000000000E+00 0.219999999E+00 0.000000000E+00 0.000000000E+00 0.239999995E+00 0.000000000E+00 0.000000000E+00 0.259999990E+00 0.000000000E+00 0.000000000E+00 0.280000001E+00 0.000000000E+00 0.000000000E+00 0.300000012E+00 0.000000000E+00 0.000000000E+00 0.319999993E+00 0.000000000E+00 0.000000000E+00 0.340000004E+00 0.000000000E+00 0.000000000E+00 0.360000014E+00 0.000000000E+00 0.000000000E+00 0.379999995E+00 0.000000000E+00 0.000000000E+00 0.400000006E+00 0.000000000E+00 0.000000000E+00 0.419999987E+00 0.000000000E+00 0.000000000E+00 0.439999998E+00 0.000000000E+00 0.000000000E+00 0.460000008E+00 0.000000000E+00 0.000000000E+00 0.479999989E+00 0.000000000E+00 0.000000000E+00 0.500000000E+00 0.000000000E+00 0.000000000E+00 0.519999981E+00 0.000000000E+00 0.000000000E+00 0.540000021E+00 0.000000000E+00 0.000000000E+00 0.560000002E+00 0.000000000E+00 0.000000000E+00 0.579999983E+00 0.000000000E+00 0.000000000E+00 0.600000024E+00 0.000000000E+00 0.000000000E+00 0.620000005E+00 0.000000000E+00 0.000000000E+00 0.639999986E+00 0.000000000E+00 0.000000000E+00 0.660000026E+00 0.000000000E+00 0.000000000E+00 0.680000007E+00 0.000000000E+00 0.000000000E+00 0.699999988E+00 0.000000000E+00 0.000000000E+00 0.720000029E+00 0.000000000E+00 0.000000000E+00 0.740000010E+00 0.000000000E+00 0.000000000E+00 0.759999990E+00 0.000000000E+00 0.000000000E+00 0.779999971E+00 0.000000000E+00 0.000000000E+00 0.800000012E+00 0.000000000E+00 0.000000000E+00 0.819999993E+00 0.000000000E+00 0.000000000E+00 0.839999974E+00 0.000000000E+00 0.000000000E+00 0.860000014E+00 0.000000000E+00 0.000000000E+00 0.879999995E+00 0.000000000E+00 0.000000000E+00 0.899999976E+00 0.000000000E+00 0.000000000E+00 0.920000017E+00 0.000000000E+00 0.000000000E+00 0.939999998E+00 0.000000000E+00 0.000000000E+00 0.959999979E+00 0.000000000E+00 0.000000000E+00 0.980000019E+00 0.000000000E+00 0.000000000E+00 0.100000000E+01 0.000000000E+00 0.000000000E+00 0.101999998E+01 0.000000000E+00 0.000000000E+00 0.103999996E+01 0.000000000E+00 0.000000000E+00 0.105999994E+01 0.000000000E+00 0.000000000E+00 0.108000004E+01 0.000000000E+00 0.000000000E+00 0.110000002E+01 0.000000000E+00 0.000000000E+00 0.112000000E+01 0.000000000E+00 0.000000000E+00 0.113999999E+01 0.000000000E+00 0.000000000E+00 0.115999997E+01 0.000000000E+00 0.000000000E+00 0.117999995E+01 0.000000000E+00 0.000000000E+00 0.120000005E+01 0.000000000E+00 0.000000000E+00 0.122000003E+01 0.000000000E+00 0.000000000E+00 0.124000001E+01 0.000000000E+00 0.000000000E+00 0.125999999E+01 0.000000000E+00 0.000000000E+00 0.127999997E+01 0.000000000E+00 0.000000000E+00 0.129999995E+01 0.000000000E+00 0.000000000E+00 0.132000005E+01 0.000000000E+00 0.000000000E+00 0.134000003E+01 0.000000000E+00 0.000000000E+00 0.136000001E+01 0.000000000E+00 0.000000000E+00 0.138000000E+01 0.000000000E+00 0.000000000E+00 0.139999998E+01 0.000000000E+00 0.000000000E+00 0.141999996E+01 0.000000000E+00 0.000000000E+00 0.144000006E+01 0.000000000E+00 0.000000000E+00 0.146000004E+01 0.000000000E+00 0.000000000E+00 0.148000002E+01 0.000000000E+00 0.000000000E+00 0.150000000E+01 0.000000000E+00 0.000000000E+00 0.151999998E+01 0.000000000E+00 0.000000000E+00 0.153999996E+01 0.000000000E+00 0.000000000E+00 0.155999994E+01 0.000000000E+00 0.000000000E+00 0.158000004E+01 0.000000000E+00 0.000000000E+00 0.160000002E+01 0.000000000E+00 0.000000000E+00 0.162000000E+01 0.000000000E+00 0.000000000E+00 0.163999999E+01 0.000000000E+00 0.000000000E+00 0.165999997E+01 0.000000000E+00 0.000000000E+00 0.167999995E+01 0.000000000E+00 0.000000000E+00 0.170000005E+01 0.000000000E+00 0.000000000E+00 0.172000003E+01 0.000000000E+00 0.000000000E+00 0.174000001E+01 0.000000000E+00 0.000000000E+00 0.175999999E+01 0.000000000E+00 0.000000000E+00 0.177999997E+01 0.000000000E+00 0.000000000E+00 0.179999995E+01 0.000000000E+00 0.000000000E+00 0.182000005E+01 0.000000000E+00 0.000000000E+00 0.184000003E+01 0.000000000E+00 0.000000000E+00 0.186000001E+01 0.000000000E+00 0.000000000E+00 0.188000000E+01 0.000000000E+00 0.000000000E+00 0.189999998E+01 0.000000000E+00 0.000000000E+00 0.191999996E+01 0.000000000E+00 0.000000000E+00 0.194000006E+01 0.000000000E+00 0.000000000E+00 0.196000004E+01 0.000000000E+00 0.000000000E+00 0.198000002E+01 0.000000000E+00 0.000000000E+00 0.200000000E+01 0.000000000E+00 0.000000000E+00
0.000000000E+00 0.999999978E-02 0.000000000E+00 0.199999996E-01 0.999999978E-02 0.000000000E+00 0.399999991E-01 0.999999978E-02 0.000000000E+00 0.599999987E-01 0.999999978E-02 0.000000000E+00 0.799999982E-01 0.999999978E-02 0.000000000E+00 0.100000001E+00 0.999999978E-02 0.000000000E+00 0.119999997E+00 0.999999978E-02 0.000000000E+00 0.140000001E+00 0.999999978E-02 0.000000000E+00 0.159999996E+00 0.999999978E-02 0.000000000E+00 0.180000007E+00 0.999999978E-02 0.000000000E+00 0.200000003E+00 0.999999978E-02 0.000000000E+00 0.219999999E+00 0.999999978E-02 0.000000000E+00 0.239999995E+00 0.999999978E-02 0.000000000E+00 0.259999990E+00 0.999999978E-02 0.000000000E+00 0.280000001E+00 0.999999978E-02 0.000000000E+00 0.300000012E+00 0.999999978E-02 0.000000000E+00 0.319999993E+00 0.999999978E-02 0.000000000E+00 0.340000004E+00 0.999999978E-02 0.000000000E+00 0.360000014E+00 0.999999978E-02 0.000000000E+00 0.379999995E+00 0.999999978E-02 0.000000000E+00 0.400000006E+00 0.999999978E-02 0.000000000E+00 0.419999987E+00 0.999999978E-02 0.000000000E+00 0.439999998E+00 0.999999978E-02 0.000000000E+00 0.460000008E+00 0.999999978E-02 0.000000000E+00 0.479999989E+00 0.999999978E-02 0.000000000E+00 0.500000000E+00 0.999999978E-02 0.000000000E+00 0.519999981E+00 0.999999978E-02 0.000000000E+00 0.540000021E+00 0.999999978E-02 0.000000000E+00 0.560000002E+00 0.999999978E-02 0.000000000E+00 0.579999983E+00 0.999999978E-02 0.000000000E+00 0.600000024E+00 0.999999978E-02 0.000000000E+00 0.620000005E+00 0.999999978E-02 0.000000000E+00 0.639999986E+00 0.999999978E-02 0.000000000E+00 0.660000026E+00 0.999999978E-02 0.000000000E+00 0.680000007E+00 0.999999978E-02 0.000000000E+00 0.699999988E+00 0.999999978E-02 0.000000000E+00 0.720000029E+00 0.999999978E-02 0.000000000E+00 0.740000010E+00 0.999999978E-02 0.000000000E+00 0.759999990E+00 0.999999978E-02 0.000000000E+00 0.779999971E+00 0.999999978E-02 0.000000000E+00 0.800000012E+00 0.999999978E-02 0.000000000E+00 0.819999993E+00 0.999999978E-02 0.000000000E+00 0.839999974E+00 0.999999978E-02 0.000000000E+00 0.860000014E+00 0.999999978E-02 0.000000000E+00 0.879999995E+00 0.999999978E-02 0.000000000E+00 0.899999976E+00 0.999999978E-02 0.000000000E+00 0.920000017E+00 0.999999978E-02 0.000000000E+00 0.939999998E+00 0.999999978E-02 0.000000000E+00 0.959999979E+00 0.999999978E-02 0.000000000E+00 0.980000019E+00 0.999999978E-02 0.000000000E+00 0.100000000E+01 0.999999978E-02 0.000000000E+00 0.101999998E+01 0.999999978E-02 0.000000000E+00 0.103999996E+01 0.999999978E-02 0.000000000E+00 0.105999994E+01 0.999999978E-02 0.000000000E+00 0.108000004E+01 0.999999978E-02 0.000000000E+00 0.110000002E+01 0.999999978E-02 0.000000000E+00 0.112000000E+01 0.999999978E-02 0.000000000E+00 0.113999999E+01 0.999999978E-02 0.000000000E+00 0.115999997E+01 0.999999978E-02 0.000000000E+00 0.117999995E+01 0.999999978E-02 0.000000000E+00 0.120000005E+01 0.999999978E-02 0.000000000E+00 0.122000003E+01 0.999999978E-02 0.000000000E+00 0.124000001E+01 0.999999978E-02 0.000000000E+00 0.125999999E+01 0.999999978E-02 0.000000000E+00 0.127999997E+01 0.999999978E-02 0.000000000E+00 0.129999995E+01 0.999999978E-02 0.000000000E+00 0.132000005E+01 0.999999978E-02 0.000000000E+00 0.134000003E+01 0.999999978E-02 0.000000000E+00 0.136000001E+01 0.999999978E-02 0.000000000E+00 0.138000000E+01 0.999999978E-02 0.000000000E+00 0.139999998E+01 0.999999978E-02 0.000000000E+00 0.141999996E+01 0.999999978E-02 0.000000000E+00 0.144000006E+01 0.999999978E-02 0.000000000E+00 0.146000004E+01 0.999999978E-02 0.000000000E+00 0.148000002E+01 0.999999978E-02 0.000000000E+00 0.150000000E+01 0.999999978E-02 0.000000000E+00 0.151999998E+01 0.999999978E-02 0.000000000E+00 0.153999996E+01 0.999999978E-02 0.000000000E+00 0.155999994E+01 0.999999978E-02 0.000000000E+00 0.158000004E+01 0.999999978E-02 0.000000000E+00 0.160000002E+01 0.999999978E-02 0.000000000E+00 0.162000000E+01 0.999999978E-02 0.000000000E+00 0.163999999E+01 0.999999978E-02 0.000000000E+00 0.165999997E+01 0.999999978E-02 0.000000000E+00 0.167999995E+01 0.999999978E-02 0.000000000E+00 0.170000005E+01 0.999999978E-02 0.000000000E+00 0.172000003E+01 0.999999978E-02 0.000000000E+00 0.174000001E+01 0.999999978E-02 0.000000000E+00 0.175999999E+01 0.999999978E-02 0.000000000E+00 0.177999997E+01 0.999999978E-02 0.000000000E+00 0.179999995E+01 0.999999978E-02 0.000000000E+00 0.182000005E+01 0.999999978E-02 0.000000000E+00 0.184000003E+01 0.999999978E-02 0.000000000E+00 0.186000001E+01 0.999999978E-02 0.000000000E+00 0.188000000E+01 0.999999978E-02 0.000000000E+00 0.189999998E+01 0.999999978E-02 0.000000000E+00 0.191999996E+01 0.999999978E-02 0.000000000E+00 0.194000006E+01 0.999999978E-02 0.000000000E+00 0.196000004E+01 0.999999978E-02 0.000000000E+00 0.198000002E+01 0.999999978E-02 0.000000000E+00 0.200000000E+01 0.999999978E-02 0.000000000E+00
[...]
<CellData Scalars="Temperature, U, V">
<DataArray type="Float32" Name="Temp, K"/>
0.166658577E-32 0.282649874E-30 0.213001788E-28 0.815740146E-27 0.172584770E-25 0.214561661E-24 0.165103884E-23 0.824749817E-23 0.279947803E-22 0.674448748E-22 0.120048739E-21 0.163518635E-21 0.175544826E-21 0.152146467E-21 0.108533313E-21 0.647072308E-22 0.326367534E-22 0.140600478E-22 0.521257671E-23 0.167274168E-23 0.466693908E-24 0.113570825E-24 0.241601517E-25 0.449899931E-26 0.733772664E-27 0.115041176E-27 0.172651615E-28 0.246944148E-29 0.335050614E-30 0.429088587E-31 0.515937034E-32 0.579124695E-33 0.603092083E-34 0.578778937E-35 0.508137235E-36 0.404873130E-37 0.290228110E-38 0.185443635E-39 0.105826060E-40 0.995062040E-41 0.126539341E-34 0.118143148E-28 0.573248851E-23 0.250496624E-20 0.577444542E-15 0.878165338E-13 0.624624311E-11 0.247283416E-09 0.535126565E-08 0.753139329E-08 0.475464612E-09 0.160986970E-10 0.319996932E-12 0.363613668E-14 0.189835634E-16 0.863371721E-22 0.172549715E-24 0.364923476E-30 0.402019570E-36 0.116167643E-41 0.134272419E-40 0.220101950E-39 0.322440598E-38 0.424263597E-37 0.505678662E-36 0.550390504E-35 0.551126107E-34 0.511199534E-33 0.442018569E-32 0.358385188E-31 0.273962242E-30 0.198462134E-29 0.136896003E-28 0.903221783E-28 0.572472565E-27 0.349990929E-26 0.187918393E-25 0.885347407E-25 0.365385876E-24 0.131744928E-23 0.413459868E-23 0.112371713E-22 0.262742746E-22 0.524020357E-22 0.881806958E-22 0.123478113E-21 0.141376622E-21 0.129463863E-21 0.922500885E-22 0.494649677E-22 0.191894281E-22 0.515440690E-23 0.914711139E-24 0.102099598E-24 0.679745958E-26 0.253642566E-27 0.488033808E-29 0.423035937E-31 0.121850401E-33 0.429652122E-40
0.188604272E-30 0.274096063E-28 0.179561844E-26 0.606420242E-25 0.114833595E-23 0.129788437E-22 0.922880484E-22 0.433193689E-21 0.140466840E-20 0.328309742E-20 0.574737772E-20 0.778941362E-20 0.840115972E-20 0.737349848E-20 0.536143899E-20 0.327607285E-20 0.170139824E-20 0.757753078E-21 0.291458381E-21 0.973484586E-22 0.283527653E-22 0.722283017E-23 0.161282040E-23 0.316076054E-24 0.543956264E-25 0.900162631E-26 0.142667661E-26 0.215649457E-27 0.309493361E-28 0.419728596E-29 0.535162423E-30 0.637993152E-31 0.706926727E-32 0.723347015E-33 0.678666383E-34 0.579329914E-35 0.446101550E-36 0.306944956E-37 0.186737734E-38 0.709465642E-37 0.813331477E-31 0.650560277E-25 0.273228807E-19 0.784194600E-17 0.217598614E-14 0.255610881E-12 0.165696901E-10 0.629558961E-09 0.134061784E-07 0.187996250E-07 0.118757737E-08 0.409763577E-10 0.851719845E-12 0.107069403E-13 0.748527052E-16 0.239988670E-18 0.717074007E-21 0.174552943E-26 0.223808798E-32 0.214610121E-38 0.237958976E-38 0.363064297E-37 0.494098556E-36 0.605487569E-35 0.673921817E-34 0.686674300E-33 0.645152589E-32 0.562624922E-31 0.458212259E-30 0.350470274E-29 0.253071257E-28 0.173364161E-27 0.113184688E-26 0.707297772E-26 0.424798608E-25 0.246167842E-24 0.125606614E-23 0.563836360E-23 0.222298668E-22 0.767819208E-22 0.231507149E-21 0.606410732E-21 0.137133762E-20 0.265583925E-20 0.436004922E-20 0.598941166E-20 0.677286115E-20 0.617628056E-20 0.442713001E-20 0.241734103E-20 0.968690798E-21 0.273057096E-21 0.516989397E-22 0.625832938E-23 0.459041612E-24 0.191553624E-25 0.418097772E-27 0.416847863E-29 0.140029295E-31 0.544924195E-38
0.128417458E-28 0.161254532E-26 0.925456300E-25 0.277667738E-23 0.473986665E-22 0.490345993E-21 0.324229819E-20 0.143808209E-19 0.447526037E-19 0.101834231E-18 0.175755899E-18 0.237359296E-18 0.257366675E-18 0.228760779E-18 0.169483569E-18 0.106061305E-18 0.566575616E-19 0.260537611E-19 0.103816208E-19 0.360313857E-20 0.109352520E-20 0.291052995E-21 0.680749601E-22 0.140091394E-22 0.253790851E-23 0.442180992E-24 0.738119646E-25 0.117573478E-25 0.177948608E-26 0.254744367E-27 0.343255094E-28 0.433053360E-29 0.508618538E-30 0.552659845E-31 0.551779289E-32 0.502385577E-33 0.413658586E-34 0.305164618E-35 0.199832627E-36 0.233332621E-33 0.165804573E-27 0.602419689E-22 0.105750595E-18 0.277603468E-16 0.525410302E-14 0.536173807E-12 0.325593406E-10 0.119779753E-08 0.251631445E-07 0.351407223E-07 0.222099850E-08 0.778085096E-10 0.167370046E-11 0.225496078E-13 0.183388483E-15 0.844824892E-18 0.275841631E-20 0.134455908E-23 0.381410339E-29 0.558523470E-35 0.253400389E-36 0.359777502E-35 0.456891236E-34 0.523854649E-33 0.546897828E-32 0.523880569E-31 0.463684232E-30 0.381634905E-29 0.293801215E-28 0.212708322E-27 0.145550904E-26 0.945737144E-26 0.586070035E-25 0.347809192E-24 0.198445751E-23 0.109262592E-22 0.530999125E-22 0.227583165E-21 0.858848241E-21 0.284682266E-20 0.826007696E-20 0.208834024E-19 0.457331326E-19 0.860939598E-19 0.137988409E-18 0.186021869E-18 0.207726429E-18 0.188490977E-18 0.135695089E-18 0.752539711E-19 0.310345629E-19 0.913682460E-20 0.183528921E-20 0.239447709E-21 0.192214968E-22 0.890772268E-24 0.218962473E-25 0.249194920E-27 0.968219244E-30 0.412146721E-36
0.593413009E-27 0.648252057E-25 0.328074550E-23 0.880043381E-22 0.136247663E-20 0.129756503E-19 0.802066569E-19 0.337707342E-18 0.101241934E-17 0.224927573E-17 0.383482007E-17 0.516686458E-17 0.563563404E-17 0.507363140E-17 0.382909598E-17 0.245274210E-17 0.134670029E-17 0.638794571E-18 0.263400984E-18 0.948741007E-19 0.299618324E-19 0.831910486E-20 0.203472557E-20 0.438902518E-21 0.835384198E-22 0.152923621E-22 0.268259191E-23 0.449219949E-24 0.715180680E-25 0.107778206E-25 0.153027518E-26 0.203672123E-27 0.252712462E-28 0.290563866E-29 0.307542071E-30 0.297467662E-31 0.260804048E-32 0.205386253E-33 0.150459030E-34 0.454050445E-30 0.161474576E-24 0.309665493E-21 0.273818729E-18 0.659487081E-16 0.104443830E-13 0.973169136E-12 0.562776353E-10 0.201683470E-08 0.418714272E-07 0.582168767E-07 0.368215725E-08 0.130645703E-09 0.288799019E-11 0.409449120E-13 0.366349902E-15 0.199676437E-17 0.710243527E-20 0.687372293E-23 0.311173233E-26 0.915552583E-32 0.182052506E-34 0.241424361E-33 0.287345517E-32 0.309551156E-31 0.304336686E-30 0.275109068E-29 0.230205804E-28 0.179415060E-27 0.130971980E-26 0.900171644E-26 0.585305887E-25 0.361650891E-24 0.213235137E-23 0.120447480E-22 0.654218631E-22 0.342905971E-21 0.159008489E-20 0.651774096E-20 0.235794458E-19 0.751118576E-19 0.209990242E-18 0.512996116E-18 0.108894502E-17 0.199414551E-17 0.312197174E-17 0.413115256E-17 0.455473728E-17 0.410970998E-17 0.296745958E-17 0.166791199E-17 0.705731473E-18 0.216155167E-18 0.458485372E-19 0.641341038E-20 0.560283700E-21 0.286656844E-22 0.788688736E-24 0.101802577E-25 0.454416219E-28 0.210200344E-34
0.199648970E-25 0.190968809E-23 0.857654436E-22 0.206938335E-20 0.292255060E-19 0.257620206E-18 0.149599026E-17 0.600483246E-17 0.174016914E-16 0.378430300E-16 0.638446915E-16 0.859096020E-16 0.943051940E-16 0.859963170E-16 0.660944639E-16 0.433121563E-16 0.244240743E-16 0.119393422E-16 0.508892142E-17 0.189993295E-17 0.623509876E-18 0.180332586E-18 0.460491932E-19 0.103937934E-19 0.207464067E-20 0.398228748E-21 0.732556242E-22 0.128670132E-22 0.214955742E-23 0.340127314E-24 0.507460847E-25 0.710425636E-26 0.928300737E-27 0.112562468E-27 0.125851517E-28 0.128827128E-29 0.119786236E-30 0.100276097E-31 0.168482173E-32 0.303278957E-27 0.957262987E-24 0.985327711E-21 0.591125858E-18 0.131254651E-15 0.186092664E-13 0.162424739E-11 0.903815495E-10 0.316849902E-08 0.650799947E-07 0.900782098E-07 0.570395775E-08 0.204625719E-09 0.462647455E-11 0.682484464E-13 0.653430279E-15 0.395610005E-17 0.152597181E-19 0.217957188E-22 0.184375098E-25 0.517499520E-29 0.960477700E-33 0.117556268E-31 0.131686565E-30 0.133826242E-29 0.124376255E-28 0.106479178E-27 0.845192912E-27 0.625725549E-26 0.434411279E-25 0.284228975E-24 0.176068804E-23 0.103704680E-22 0.583107743E-22 0.314168185E-21 0.162771060E-20 0.813686340E-20 0.360641861E-19 0.141605631E-18 0.491836629E-18 0.150770376E-17 0.406635992E-17 0.960924964E-17 0.197900116E-16 0.352801002E-16 0.539799704E-16 0.701302715E-16 0.763341328E-16 0.684500096E-16 0.495163516E-16 0.281541973E-16 0.121892913E-16 0.387016012E-17 0.863097002E-18 0.128809793E-18 0.121814018E-19 0.684194386E-21 0.209461093E-22 0.304774069E-24 0.155301916E-26 0.776223827E-33
0.512182093E-24 0.431668474E-22 0.173083524E-20 0.377832516E-19 0.489441890E-18 0.401377026E-17 0.219966284E-16 0.845004171E-16 0.237443187E-15 0.506580548E-15 0.846992078E-15 0.113923316E-14 0.125906397E-14 0.116292923E-14 0.909928849E-15 0.609674357E-15 0.352831680E-15 0.177583488E-15 0.781583969E-16 0.302101183E-16 0.102889580E-16 0.309530861E-17 0.823947887E-18 0.194276847E-18 0.405947254E-19 0.815517447E-20 0.156994488E-20 0.288607451E-21 0.504760002E-22 0.836526563E-23 0.130803413E-23 0.192074947E-24 0.263523145E-25 0.335917388E-26 0.395393321E-27 0.426804553E-28 0.419273068E-29 0.371597791E-30 0.532474632E-30 0.211402589E-26 0.342161910E-23 0.249033346E-20 0.114734366E-17 0.236147889E-15 0.309146460E-13 0.256504171E-11 0.138273865E-09 0.475541118E-08 0.966950822E-07 0.133235503E-06 0.845147152E-08 0.306236647E-09 0.705889427E-11 0.107561082E-12 0.108486783E-14 0.709026547E-17 0.295052675E-19 0.549762718E-22 0.659435886E-25 0.361625636E-28 0.448734742E-31 0.434595919E-30 0.460045795E-29 0.442718090E-28 0.390353620E-27 0.317563642E-26 0.239873419E-25 0.169197167E-24 0.112028090E-23 0.699615651E-23 0.413909826E-22 0.232938357E-21 0.125175863E-20 0.644608967E-20 0.319176590E-19 0.152444656E-18 0.646886155E-18 0.243687160E-17 0.813765894E-17 0.240373342E-16 0.626171025E-16 0.143286608E-15 0.286565090E-15 0.497694484E-15 0.744614541E-15 0.950081811E-15 0.102089694E-14 0.909388125E-15 0.658413480E-15 0.378078688E-15 0.167082583E-15 0.548146453E-16 0.128015886E-16 0.202900559E-17 0.206668246E-18 0.126751818E-19 0.429347885E-21 0.700075794E-23 0.404750356E-25 0.217431866E-31
0.103599265E-22 0.774004925E-21 0.278692981E-19 0.553453210E-18 0.661030261E-17 0.506741894E-16 0.263201301E-15 0.971100616E-15 0.265326485E-14 0.556459481E-14 0.923264049E-14 0.124221176E-13 0.138259172E-13 0.129338577E-13 0.102990558E-13 0.705154547E-14 0.418492382E-14 0.216671388E-14 0.983671855E-15 0.393175409E-15 0.138792132E-15 0.433707570E-16 0.120168895E-16 0.295520448E-17 0.645317355E-18 0.135430133E-18 0.272307244E-19 0.522832390E-20 0.955170253E-21 0.165406297E-21 0.270382454E-22 0.415342406E-23 0.596623046E-24 0.797099695E-25 0.984575447E-26 0.111691447E-26 0.115500799E-27 0.107973666E-28 0.503669425E-29 0.868378316E-26 0.955192779E-23 0.548103526E-20 0.207498319E-17 0.398036876E-15 0.489271709E-13 0.389430675E-11 0.204292500E-09 0.690562274E-08 0.139048481E-06 0.190745965E-06 0.121288535E-07 0.443643983E-09 0.104030439E-10 0.162951412E-12 0.171493477E-14 0.119138046E-16 0.532106903E-19 0.120901731E-21 0.184367899E-24 0.149165441E-27 0.119820970E-29 0.126005170E-28 0.126527290E-27 0.115719289E-26 0.971292385E-26 0.753285497E-25 0.543100954E-24 0.366021284E-23 0.231748449E-22 0.138486261E-21 0.784354932E-21 0.422701652E-20 0.217545932E-19 0.107285590E-18 0.508620744E-18 0.232499501E-17 0.946089480E-17 0.342443013E-16 0.110099480E-15 0.313775467E-15 0.790400907E-15 0.175323358E-14 0.340807878E-14 0.577068893E-14 0.844702336E-14 0.105884167E-13 0.112324294E-13 0.993580997E-14 0.719390673E-14 0.416591132E-14 0.187513592E-14 0.633777844E-15 0.154434753E-15 0.258840166E-16 0.282618168E-17 0.188306503E-18 0.701965340E-20 0.127543574E-21 0.831712914E-24 0.477735715E-30
0.169540484E-21 0.112937433E-19 0.367194909E-18 0.666866227E-17 0.737993271E-16 0.531228889E-15 0.262533817E-14 0.933341962E-14 0.248573186E-13 0.513380029E-13 0.846222709E-13 0.113960734E-12 0.127761720E-12 0.121033730E-12 0.980446057E-13 0.685569629E-13 0.416927641E-13 0.221852549E-13 0.103787523E-13 0.428496604E-14 0.156583209E-14 0.507565594E-15 0.146169763E-15 0.374329800E-16 0.852826024E-17 0.186643855E-17 0.391230270E-18 0.782970394E-19 0.149100598E-19 0.269180970E-20 0.458897327E-21 0.735552083E-22 0.110326434E-22 0.154044478E-23 0.199067558E-24 0.236559156E-25 0.256633227E-26 0.252094720E-27 0.418730151E-28 0.274008031E-25 0.229554989E-22 0.109969494E-19 0.356748936E-17 0.641064710E-15 0.747428446E-13 0.574052784E-11 0.293948033E-09 0.977825643E-08 0.194978085E-06 0.266314629E-06 0.169877072E-07 0.627097207E-09 0.149377594E-10 0.239745046E-12 0.261660336E-14 0.191434508E-16 0.913197573E-19 0.242634934E-21 0.444108820E-24 0.474827580E-27 0.281053214E-28 0.293684841E-27 0.280759891E-26 0.244871962E-25 0.196289991E-24 0.145567813E-23 0.100461704E-22 0.648656593E-22 0.393738880E-21 0.225683023E-20 0.122644623E-19 0.634282740E-19 0.313263638E-18 0.148229763E-17 0.674024607E-17 0.295372796E-16 0.115438494E-15 0.402058614E-15 0.124624339E-14 0.343102998E-14 0.836696774E-14 0.180087031E-13 0.340557863E-13 0.562613785E-13 0.806197624E-13 0.993167679E-13 0.104022287E-12 0.913498471E-13 0.660964813E-13 0.385513934E-13 0.176401574E-13 0.612623355E-14 0.155230921E-14 0.274029664E-15 0.319300253E-16 0.230010928E-17 0.938794161E-19 0.189052008E-20 0.138262688E-22 0.844863186E-29
0.229194804E-20 0.136878526E-18 0.403970940E-17 0.674281041E-16 0.694615880E-15 0.471478063E-14 0.222505492E-13 0.764457196E-13 0.198898203E-12 0.405155835E-12 0.664113404E-12 0.895627268E-12 0.101150728E-11 0.970212409E-12 0.799192960E-12 0.570373447E-12 0.355178262E-12 0.194068286E-12 0.934611682E-13 0.398122528E-13 0.150420532E-13 0.505125599E-14 0.150981590E-14 0.402040483E-15 0.954117301E-16 0.217383082E-16 0.474166231E-17 0.987223207E-18 0.195558241E-18 0.367276011E-19 0.651493792E-20 0.108697954E-20 0.169801073E-21 0.247101402E-22 0.333112610E-23 0.413396049E-24 0.468959319E-25 0.482411747E-26 0.516730567E-27 0.735543769E-25 0.498814989E-22 0.206541037E-19 0.590487306E-17 0.998559518E-15 0.111157204E-12 0.827042167E-11 0.414220575E-09 0.135704017E-07 0.267923269E-06 0.364413552E-06 0.233372557E-07 0.869435413E-09 0.210194397E-10 0.344902682E-12 0.388779060E-14 0.297741114E-16 0.151029092E-18 0.456263213E-21 0.968042673E-24 0.132400375E-26 0.557998046E-27 0.561183206E-26 0.512520218E-25 0.427669403E-24 0.328407311E-23 0.233557196E-22 0.154713445E-21 0.959511537E-21 0.559737167E-20 0.308442726E-19 0.161180020E-18 0.801584542E-18 0.380650651E-17 0.173132360E-16 0.756397378E-16 0.318279671E-15 0.119650445E-14 0.401558415E-14 0.120157316E-13 0.319953923E-13 0.756186156E-13 0.158088332E-12 0.291091316E-12 0.469540802E-12 0.659042916E-12 0.798211757E-12 0.825555499E-12 0.719624664E-12 0.520039795E-12 0.305171876E-12 0.141712773E-12 0.504487707E-13 0.132517364E-13 0.245478661E-14 0.303961823E-15 0.235645840E-16 0.104794044E-17 0.232696101E-19 0.189836083E-21 0.122792515E-27
0.260403339E-19 0.140154877E-17 0.377355031E-16 0.581627243E-15 0.560199978E-14 0.359956138E-13 0.162761528E-12 0.541849768E-12 0.138001286E-11 0.277632648E-11 0.452920340E-11 0.611911303E-11 0.696215047E-11 0.675978457E-11 0.565968886E-11 0.412014953E-11 0.262512212E-11 0.147156918E-11 0.728826559E-12 0.319977795E-12 0.124849824E-12 0.433780649E-13 0.134387613E-13 0.371552146E-14 0.917073678E-15 0.217160904E-15 0.492051729E-16 0.106379844E-16 0.218771819E-17 0.426534468E-18 0.785527157E-19 0.136104783E-19 0.220889677E-20 0.334154134E-21 0.468627017E-22 0.605580710E-23 0.716134931E-24 0.768947036E-25 0.764442964E-26 0.177371418E-24 0.100860392E-21 0.369326482E-19 0.949005871E-17 0.151638580E-14 0.161890886E-12 0.116999093E-10 0.573933567E-09 0.185255189E-07 0.362038350E-06 0.490423872E-06 0.315567164E-07 0.118671883E-08 0.291032042E-10 0.487514488E-12 0.565975133E-14 0.451839171E-16 0.242764533E-18 0.817591043E-21 0.196506514E-23 0.394582293E-26 0.926759492E-26 0.893472366E-25 0.782093563E-24 0.626309174E-23 0.462066345E-22 0.316004931E-21 0.201446267E-20 0.120298137E-19 0.675998428E-19 0.358916847E-18 0.180727466E-17 0.866010787E-17 0.396150924E-16 0.173501438E-15 0.729501514E-15 0.295206525E-14 0.106903884E-13 0.346195071E-13 0.100130638E-12 0.258187704E-12 0.592034939E-12 0.120338017E-11 0.215939419E-11 0.340349146E-11 0.468203037E-11 0.557756445E-11 0.569747504E-11 0.492925752E-11 0.355608880E-11 0.209760985E-11 0.987058308E-12 0.359422914E-12 0.975988021E-13 0.189066597E-13 0.247802707E-14 0.205848938E-15 0.992802024E-17 0.241899561E-18 0.219010446E-20 0.149243094E-26
0.252329145E-18 0.123003784E-16 0.303571526E-15 0.434025061E-14 0.392467024E-13 0.239598678E-12 0.104120770E-11 0.336685410E-11 0.840853949E-11 0.167269271E-10 0.271766585E-10 0.367932629E-10 0.421719604E-10 0.414366805E-10 0.352464308E-10 0.261562889E-10 0.170385719E-10 0.979059629E-11 0.498192069E-11 0.225184563E-11 0.906317881E-12 0.325394849E-12 0.104348042E-12 0.299117861E-13 0.766698310E-14 0.188390864E-14 0.442665930E-15 0.991992578E-16 0.211391399E-16 0.426997787E-17 0.814709676E-18 0.146266923E-18 0.246040786E-19 0.385952780E-20 0.561613328E-21 0.753606901E-22 0.926287969E-23 0.103495030E-23 0.104770897E-24 0.401925026E-24 0.193301277E-21 0.636045927E-19 0.149004974E-16 0.225752852E-14 0.231889134E-12 0.163082638E-10 0.784222520E-09 0.249437377E-07 0.482326641E-06 0.650802576E-06 0.421103152E-07 0.159901492E-08 0.397698437E-10 0.679447384E-12 0.810834486E-14 0.672797410E-16 0.381582914E-18 0.141221581E-20 0.378460595E-23 0.195126255E-25 0.129761912E-24 0.120154540E-23 0.101119843E-22 0.779422405E-22 0.553992957E-21 0.365294833E-20 0.224656761E-19 0.129485289E-18 0.702474088E-18 0.360127266E-17 0.175086094E-16 0.809912324E-16 0.357534381E-15 0.151039527E-14 0.612158080E-14 0.238595307E-13 0.833511320E-13 0.260803775E-12 0.730042546E-12 0.182495598E-11 0.406441894E-11 0.804006514E-11 0.140722520E-10 0.216884965E-10 0.292599799E-10 0.342992960E-10 0.346129861E-10 0.297214441E-10 0.213977447E-10 0.126772525E-10 0.603712870E-11 0.224432192E-11 0.628392737E-12 0.126897489E-12 0.175396535E-13 0.155480298E-14 0.809657486E-16 0.215458939E-17 0.215433342E-19 0.153954171E-25
0.211197346E-17 0.936906253E-16 0.212923733E-14 0.283593187E-13 0.241692544E-12 0.140666255E-11 0.589125233E-11 0.185436128E-10 0.454839742E-10 0.895576807E-10 0.144995557E-09 0.196751004E-09 0.227160304E-09 0.225801669E-09 0.195035030E-09 0.147447277E-09 0.981261808E-10 0.577471786E-10 0.301610265E-10 0.140209797E-10 0.581434857E-11 0.215451311E-11 0.714235366E-12 0.211980132E-12 0.563427140E-13 0.143435102E-13 0.348935201E-14 0.809108476E-15 0.178335111E-15 0.372487900E-16 0.734811422E-17 0.136401473E-17 0.237278310E-18 0.385040911E-19 0.579886163E-20 0.805865515E-21 0.102666195E-21 0.119011777E-22 0.124593776E-23 0.938253806E-24 0.355605218E-21 0.106370690E-18 0.229615726E-16 0.330838300E-14 0.327719920E-12 0.224564152E-10 0.105912468E-08 0.331944072E-07 0.634800131E-06 0.853280824E-06 0.555656428E-07 0.213138107E-08 0.537604197E-10 0.936194807E-12 0.114692378E-13 0.986992238E-16 0.589191083E-18 0.237071640E-20 0.701212463E-23 0.171109440E-24 0.154835942E-23 0.138099394E-22 0.112069329E-21 0.833761606E-21 0.572449899E-20 0.364850498E-19 0.216987414E-18 0.120981017E-17 0.635010923E-17 0.314969565E-16 0.148139008E-15 0.662735201E-15 0.282825508E-14 0.115435234E-13 0.451688722E-13 0.169815171E-12 0.573076146E-12 0.173483266E-11 0.470556016E-11 0.114168102E-10 0.247218097E-10 0.476389032E-10 0.813978468E-10 0.122765645E-09 0.162527825E-09 0.187562632E-09 0.187043159E-09 0.159414107E-09 0.114503983E-09 0.680928716E-10 0.327795603E-10 0.124197545E-10 0.357736128E-11 0.750876629E-12 0.109071348E-12 0.102774175E-13 0.575419868E-15 0.166491936E-16 0.182989916E-18 0.136536452E-24