<?xml version="1.0"?>
<VTKFile type="StructuredGrid">
<StructuredGrid WholeExtent="     0   100     0   100     0     0">
<Piece Extent="     0   100     0   100     0     0">
<Points>
<DataArray type="Float32" NumberOfComponents="3"/>
0.000000000E+00 0.000000000E+00 0.000000000E+00 0.199999996E-01 0.000000000E+00 0.000000000E+00 0.399999991E-01 0.000000000E+00 0.000000000E+00 0.599999987E-01 0.000000000E+00 0.000000000E+00 0.799999982E-01 0.000000000E+00 0.000000000E+00 0.100000001E+00 0.000000000E+00 0.000000000E+00 0.119999997E+00 0.000000000E+00 0.000000000E+00 0.140000001E+00 0.000000000E+00 0.000000000E+00 0.159999996E+00 0.000000000E+00 0.000000000E+00 0.180000007E+00 0.000000000E+00 0.000000000E+00 0.200000003E+00 0.000000000E+00 0.000000000E+00 0.219999999E+00 0.000000000E+00 0.000000000E+00 0.239999995E+00 0.000000000E+00 0.000000000E+00 0.259999990E+00 0.000000000E+00 0.000000000E+00 0.280000001E+00 0.000000000E+00 0.000000000E+00 0.300000012E+00 0.000000000E+00 0.000000000E+00 0.319999993E+00 0.000000000E+00 0.000000000E+00 0.340000004E+00 0.000000000E+00 0.000000000E+00 0.360000014E+00 0.000000000E+00 0.000000000E+00 0.379999995E+00 0.000000000E+00 0.000000000E+00 0.400000006E+00 0.000000000E+00 0.000000000E+00 0.419999987E+00 0.000000000E+00 0.000000000E+00 0.439999998E+00 0.000000000E+00 0.000000000E+00 0.460000008E+00 0.000000000E+00 0.000000000E+00 0.479999989E+00 0.000000000E+00 0.000000000E+00 0.500000000E+00 0.000000000E+00 0.000000000E+00 0.519999981E+00 0.000000000E+00 0.000000000E+00 0.540000021E+00 0.000000000E+00 0.000000000E+00 0.560000002E+00 0.000000000E+00 0.000000000E+00 0.579999983E+00 0.000000000E+00 0.000000000E+00 0.600000024E+00 0.000000000E+00 0.000000000E+00 0.620000005E+00 0.000000000E+00 0.000000000E+00 0.639999986E+00 0.000000000E+00 0.000000000E+00 0.660000026E+00 0.000000000E+00 0.000000000E+00 0.680000007E+00 0.000000000E+00 0.000000000E+00 0.699999988E+00 0.000000000E+00 0.000000000E+00 0.720000029E+00 0.000000000E+00 0.000000000E+00 0.740000010E+00 0.000000000E+00 0.000000000E+00 0.759999990E+00 0.000000000E+00 0.000000000E+00 0.779999971E+00 0.000000000E+00 0.000000000E+00 0.800000012E+00 0.000000000E+00 0.000000000E+00 0.819999993E+00 0.000000000E+00 0.000000000E+00 0.839999974E+00 0.000000000E+00 0.000000000E+00 0.860000014E+00 0.000000000E+00 0.000000000E+00 0.879999995E+00 0.000000000E+00 0.000000000E+00 0.899999976E+00 0.000000000E+00 0.000000000E+00 0.920000017E+00 0.000000000E+00 0.000000000E+00 0.939999998E+00 0.000000000E+00 0.000000000E+00 0.959999979E+00 0.000000000E+00 0.000000000E+00 0.980000019E+00 0.000000000E+00 0.000000000E+00 0.100000000E+01 0.000000000E+00 0.000000000E+00 0.101999998E+01 0.000000000E+00 0.000000000E+00 0.103999996E+01 0.000000000E+00 0.000000000E+00 0.105999994E+01 0.000000000E+00 0.000000000E+00 0.108000004E+01 0.000000000E+00 0.000000000E+00 0.110000002E+01 0.000000000E+00 0.000000000E+00 0.112000000E+01 0.000000000E+00 0.000000000E+00 0.113999999E+01 0.000000000E+00 0.000000000E+00 0.115999997E+01 0.000000000E+00 0.000000000E+00 0.117999995E+01 0.000000000E+00 0.000000000E+00 0.120000005E+01 0.000000000E+00 0.000000000E+00 0.122000003E+01 0.000000000E+00 0.000000000E+00 0.124000001E+01 0.000000000E+00 0.000000000E+00 0.125999999E+01 0.000000000E+00 0.000000000E+00 0.127999997E+01 0.000000000E+00 0.000000000E+00 0.129999995E+01 0.000000000E+00 0.000000000E+00 0.132000005E+01 0.000000000E+00 0.000000000E+00 0.134000003E+01 0.000000000E+00 0.000000000E+00 0.136000001E+01 0.000000000E+00 0.000000000E+00 0.138000000E+01 0.000000000E+00 0.000000000E+00 0.139999998E+01 0.000000000E+00 0.000000000E+00 0.141999996E+01 0.000000000E+00 0.000000000E+00 0.144000006E+01 0.000000000E+00 0.000000000E+00 0.146000004E+01 0.000000000E+00 0.000000000E+00 0.148000002E+01 0.000000000E+00 0.000000000E+00 0.150000000E+01 0.000000000E+00 0.000000000E+00 0.151999998E+01 0.000000000E+00 0.000000000E+00 0.153999996E+01 0.000000000E+00 0.000000000E+00 0.155999994E+01 0.000000000E+00 0.000000000E+00 0.158000004E+01 0.000000000E+00 0.000000000E+00 0.160000002E+01 0.000000000E+00 0.000000000E+00 0.162000000E+01 0.000000000E+00 0.000000000E+00 0.163999999E+01 0.000000000E+00 0.000000000E+00 0.165999997E+01 0.000000000E+00 0.000000000E+00 0.167999995E+01 0.000000000E+00 0.000000000E+00 0.170000005E+01 0.000000000E+00 0.000000000E+00 0.172000003E+01 0.000000000E+00 0.000000000E+00 0.174000001E+01 0.000000000E+00 0.000000000E+00 0.175999999E+01 0.000000000E+00 0.000000000E+00 0.177999997E+01 0.000000000E+00 0.000000000E+00 0.179999995E+01 0.000000000E+00 0.000000000E+00 0.182000005E+01 0.000000000E+00 0.000000000E+00 0.184000003E+01 0.000000000E+00 0.000000000E+00 0.186000001E+01 0.000000000E+00 0.000000000E+00 0.188000000E+01 0.000000000E+00 0.000000000E+00 0.189999998E+01 0.000000000E+00 0.000000000E+00 0.191999996E+01 0.000000000E+00 0.000000000E+00 0.194000006E+01 0.000000000E+00 0.000000000E+00 0.196000004E+01 0.000000000E+00 0.000000000E+00 0.198000002E+01 0.000000000E+00 0.000000000E+00 0.200000000E+01 0.000000000E+00 0.000000000E+00
0.000000000E+00 0.999999978E-02 0.000000000E+00 0.199999996E-01 0.999999978E-02 0.000000000E+00 0.399999991E-01 0.999999978E-02 0.000000000E+00 0.599999987E-01 0.999999978E-02 0.000000000E+00 0.799999982E-01 0.999999978E-02 0.000000000E+00 0.100000001E+00 0.999999978E-02 0.000000000E+00 0.119999997E+00 0.999999978E-02 0.000000000E+00 0.140000001E+00 0.999999978E-02 0.000000000E+00 0.159999996E+00 0.999999978E-02 0.000000000E+00 0.180000007E+00 0.999999978E-02 0.000000000E+00 0.200000003E+00 0.999999978E-02 0.000000000E+00 0.219999999E+00 0.999999978E-02 0.000000000E+00 0.239999995E+00 0.999999978E-02 0.000000000E+00 0.259999990E+00 0.999999978E-02 0.000000000E+00 0.280000001E+00 0.999999978E-02 0.000000000E+00 0.300000012E+00 0.999999978E-02 0.000000000E+00 0.319999993E+00 0.999999978E-02 0.000000000E+00 0.340000004E+00 0.999999978E-02 0.000000000E+00 0.360000014E+00 0.999999978E-02 0.000000000E+00 0.379999995E+00 0.999999978E-02 0.000000000E+00 0.400000006E+00 0.999999978E-02 0.000000000E+00 0.419999987E+00 0.999999978E-02 0.000000000E+00 0.439999998E+00 0.999999978E-02 0.000000000E+00 0.460000008E+00 0.999999978E-02 0.000000000E+00 0.479999989E+00 0.999999978E-02 0.000000000E+00 0.500000000E+00 0.999999978E-02 0.000000000E+00 0.519999981E+00 0.999999978E-02 0.000000000E+00 0.540000021E+00 0.999999978E-02 0.000000000E+00 0.560000002E+00 0.999999978E-02 0.000000000E+00 0.579999983E+00 0.999999978E-02 0.000000000E+00 0.600000024E+00 0.999999978E-02 0.000000000E+00 0.620000005E+00 0.999999978E-02 0.000000000E+00 0.639999986E+00 0.999999978E-02 0.000000000E+00 0.660000026E+00 0.999999978E-02 0.000000000E+00 0.680000007E+00 0.999999978E-02 0.000000000E+00 0.699999988E+00 0.999999978E-02 0.000000000E+00 0.720000029E+00 0.999999978E-02 0.000000000E+00 0.740000010E+00 0.999999978E-02 0.000000000E+00 0.759999990E+00 0.999999978E-02 0.000000000E+00 0.779999971E+00 0.999999978E-02 0.000000000E+00 0.800000012E+00 0.999999978E-02 0.000000000E+00 0.819999993E+00 0.999999978E-02 0.000000000E+00 0.839999974E+00 0.999999978E-02 0.000000000E+00 0.860000014E+00 0.999999978E-02 0.000000000E+00 0.879999995E+00 0.999999978E-02 0.000000000E+00 0.899999976E+00 0.999999978E-02 0.000000000E+00 0.920000017E+00 0.999999978E-02 0.000000000E+00 0.939999998E+00 0.999999978E-02 0.000000000E+00 0.959999979E+00 0.999999978E-02 0.000000000E+00 0.980000019E+00 0.999999978E-02 0.000000000E+00 0.100000000E+01 0.999999978E-02 0.000000000E+00 0.101999998E+01 0.999999978E-02 0.000000000E+00 0.103999996E+01 0.999999978E-02 0.000000000E+00 0.105999994E+01 0.999999978E-02 0.000000000E+00 0.108000004E+01 0.999999978E-02 0.000000000E+00 0.110000002E+01 0.999999978E-02 0.000000000E+00 0.112000000E+01 0.999999978E-02 0.000000000E+00 0.113999999E+01 0.999999978E-02 0.000000000E+00 0.115999997E+01 0.999999978E-02 0.000000000E+00 0.117999995E+01 0.999999978E-02 0.000000000E+00 0.120000005E+01 0.999999978E-02 0.000000000E+00 0.122000003E+01 0.999999978E-02 0.000000000E+00 0.124000001E+01 0.999999978E-02 0.000000000E+00 0.125999999E+01 0.999999978E-02 0.000000000E+00 0.127999997E+01 0.999999978E-02 0.000000000E+00 0.129999995E+01 0.999999978E-02 0.000000000E+00 0.132000005E+01 0.999999978E-02 0.000000000E+00 0.134000003E+01 0.999999978E-02 0.000000000E+00 0.136000001E+01 0.999999978E-02 0.000000000E+00 0.138000000E+01 0.999999978E-02 0.000000000E+00 0.139999998E+01 0.999999978E-02 0.000000000E+00 0.141999996E+01 0.999999978E-02 0.000000000E+00 0.144000006E+01 0.999999978E-02 0.000000000E+00 0.146000004E+01 0.999999978E-02 0.000000000E+00 0.148000002E+01 0.999999978E-02 0.000000000E+00 0.150000000E+01 0.999999978E-02 0.000000000E+00 0.151999998E+01 0.999999978E-02 0.000000000E+00 0.153999996E+01 0.999999978E-02 0.000000000E+00 0.155999994E+01 0.999999978E-02 0.000000000E+00 0.158000004E+01 0.999999978E-02 0.000000000E+00 0.160000002E+01 0.999999978E-02 0.000000000E+00 0.162000000E+01 0.999999978E-02 0.000000000E+00 0.163999999E+01 0.999999978E-02 0.000000000E+00 0.165999997E+01 0.999999978E-02 0.000000000E+00 0.167999995E+01 0.999999978E-02 0.000000000E+00 0.170000005E+01 0.999999978E-02 0.000000000E+00 0.172000003E+01 0.999999978E-02 0.000000000E+00 0.174000001E+01 0.999999978E-02 0.000000000E+00 0.175999999E+01 0.999999978E-02 0.000000000E+00 0.177999997E+01 0.999999978E-02 0.000000000E+00 0.179999995E+01 0.999999978E-02 0.000000000E+00 0.182000005E+01 0.999999978E-02 0.000000000E+00 0.184000003E+01 0.999999978E-02 0.000000000E+00 0.186000001E+01 0.999999978E-02 0.000000000E+00 0.188000000E+01 0.999999978E-02 0.000000000E+00 0.189999998E+01 0.999999978E-02 0.000000000E+00 0.191999996E+01 0.999999978E-02 0.000000000E+00 0.194000006E+01 0.999999978E-02 0.000000000E+00 0.196000004E+01 0.999999978E-02 0.000000000E+00 0.198000002E+01 0.999999978E-02 0.000000000E+00 0.200000000E+01 0.999999978E-02 0.000000000E+00
[...]
<CellData Scalars="Temperature, U, V">
<DataArray type="Float32" Name="Temp, K"/>
0.713065447E-07 0.252303721E-06 0.611963060E-06 0.120419361E-05 0.205086781E-05 0.313154123E-05 0.438207962E-05 0.570216434E-05 0.696981670E-05 0.805989202E-05 0.886297767E-05 0.930132865E-05 0.933926367E-05 0.898650887E-05 0.829436885E-05 0.734582363E-05 0.624164159E-05 0.508521180E-05 0.396879159E-05 0.296338203E-05 0.211351767E-05 0.143714851E-05 0.929720727E-06 0.570864415E-06 0.331833974E-06 0.189076729E-06 0.105400659E-06 0.573605838E-07 0.304040988E-07 0.156557736E-07 0.780892773E-08 0.376087872E-08 0.174263359E-08 0.773718534E-09 0.327663674E-09 0.131665970E-09 0.499018535E-10 0.177153344E-10 0.584331932E-11 0.177377937E-11 0.489890030E-12 0.121392263E-12 0.265215858E-13 0.499530693E-14 0.786988264E-15 0.100216723E-15 0.710335964E-15 0.297782225E-12 0.649369794E-10 0.919446949E-10 0.565286370E-12 0.175092542E-14 0.284438197E-16 0.206922658E-15 0.134931893E-14 0.736024536E-14 0.346130798E-13 0.143520612E-12 0.533932978E-12 0.180725411E-11 0.562962003E-11 0.162934215E-10 0.441702508E-10 0.112938055E-09 0.273997713E-09 0.634045372E-09 0.140590539E-08 0.299928149E-08 0.617833518E-08 0.123287451E-07 0.239010181E-07 0.451333051E-07 0.832122922E-07 0.150113976E-06 0.265491991E-06 0.461170856E-06 0.759479974E-06 0.118853688E-05 0.177116306E-05 0.251805159E-05 0.342086378E-05 0.444692796E-05 0.553726841E-05 0.660926435E-05 0.756440750E-05 0.830056706E-05 0.872699275E-05 0.877964703E-05 0.843382441E-05 0.771145915E-05 0.668099347E-05 0.544928844E-05 0.414611350E-05 0.290357207E-05 0.183418229E-05 0.101197179E-05 0.461008142E-06 0.154865717E-06 0.284176913E-07 0.193178779E-12
0.486787144E-06 0.167501526E-05 0.398339989E-05 0.773229294E-05 0.130509297E-04 0.198233392E-04 0.276824194E-04 0.360506674E-04 0.442175988E-04 0.514386957E-04 0.570386364E-04 0.605022906E-04 0.615401659E-04 0.601194733E-04 0.564576803E-04 0.509813253E-04 0.442580786E-04 0.369141344E-04 0.295508926E-04 0.226744341E-04 0.166481423E-04 0.116737701E-04 0.780031678E-05 0.495455652E-05 0.298350619E-05 0.175751256E-05 0.101096396E-05 0.566725305E-06 0.308921813E-06 0.163340857E-06 0.835444993E-07 0.412078904E-07 0.195333723E-07 0.886354545E-08 0.383299792E-08 0.157167501E-08 0.607491557E-09 0.219850110E-09 0.739053055E-10 0.228615737E-10 0.643451395E-11 0.162520561E-11 0.362056224E-12 0.695707326E-13 0.111896695E-13 0.144507008E-14 0.158858838E-14 0.612665246E-12 0.133355743E-09 0.188701471E-09 0.116003312E-11 0.363115571E-14 0.383763232E-15 0.300682212E-14 0.192077579E-13 0.102721549E-12 0.473913714E-12 0.192875295E-11 0.704525414E-11 0.234181112E-10 0.716376611E-10 0.203584025E-09 0.541756251E-09 0.135914580E-08 0.323347948E-08 0.733204564E-08 0.159171876E-07 0.332121886E-07 0.668386662E-07 0.130136556E-06 0.245816722E-06 0.451584526E-06 0.808630375E-06 0.141422527E-05 0.242011788E-05 0.405904939E-05 0.646298258E-05 0.979258039E-05 0.141501632E-04 0.195376815E-04 0.258209620E-04 0.327101079E-04 0.397641998E-04 0.464241930E-04 0.520726026E-04 0.561126726E-04 0.580548476E-04 0.575970298E-04 0.546831652E-04 0.495292079E-04 0.426081060E-04 0.345941517E-04 0.262711146E-04 0.184172040E-04 0.116855936E-04 0.650229686E-05 0.300351894E-05 0.103120544E-05 0.195972717E-06 0.131385799E-11
0.238526900E-05 0.800979433E-05 0.187214027E-04 0.359004043E-04 0.600918138E-04 0.908020520E-04 0.126487706E-03 0.164723140E-03 0.202505937E-03 0.236644060E-03 0.264162925E-03 0.282674533E-03 0.290661061E-03 0.287637988E-03 0.274179591E-03 0.251808233E-03 0.222766204E-03 0.189705941E-03 0.155347094E-03 0.122152269E-03 0.920711973E-04 0.663882383E-04 0.456887537E-04 0.299349140E-04 0.186207908E-04 0.113083834E-04 0.669358315E-05 0.385444810E-05 0.215479258E-05 0.116673971E-05 0.610279415E-06 0.307458606E-06 0.148695520E-06 0.687728559E-07 0.302878611E-07 0.126387167E-07 0.496867125E-08 0.182808801E-08 0.624582941E-09 0.196337308E-09 0.561563365E-10 0.144161254E-10 0.326521839E-11 0.638212790E-12 0.104480044E-12 0.137298374E-13 0.360410571E-14 0.946532783E-12 0.205532147E-09 0.290649699E-09 0.178749517E-11 0.590607148E-14 0.367103486E-14 0.286262103E-13 0.179676166E-12 0.944839476E-12 0.428881279E-11 0.171809372E-10 0.617907114E-10 0.202251341E-09 0.609234940E-09 0.170457970E-08 0.446447768E-08 0.110186109E-07 0.257730566E-07 0.574166101E-07 0.122354223E-06 0.250355441E-06 0.493519963E-06 0.940043890E-06 0.173472404E-05 0.310863857E-05 0.542098542E-05 0.921658102E-05 0.153030105E-04 0.248517681E-04 0.383650440E-04 0.564393122E-04 0.793002473E-04 0.106633779E-03 0.137472147E-03 0.170171217E-03 0.202500480E-03 0.231846047E-03 0.255504827E-03 0.271029625E-03 0.276572304E-03 0.271174533E-03 0.254954008E-03 0.229154670E-03 0.196039284E-03 0.158633935E-03 0.120344361E-03 0.844924871E-04 0.538420136E-04 0.301909949E-04 0.141150849E-04 0.493677180E-05 0.966334710E-06 0.636477850E-11
0.887206897E-05 0.291190099E-04 0.669589135E-04 0.126903091E-03 0.210658662E-03 0.316569756E-03 0.439644762E-03 0.572102552E-03 0.704304199E-03 0.825906347E-03 0.927071611E-03 0.999583164E-03 0.103774155E-02 0.103894691E-02 0.100391498E-02 0.936503289E-03 0.843177957E-03 0.732184970E-03 0.612539821E-03 0.492972962E-03 0.380984828E-03 0.282149034E-03 0.199759350E-03 0.134851463E-03 0.865537659E-04 0.541382069E-04 0.329477443E-04 0.194753229E-04 0.111588497E-04 0.618387230E-05 0.330609009E-05 0.170037902E-05 0.838593735E-06 0.395126563E-06 0.177122800E-06 0.751742064E-07 0.300395335E-07 0.112284493E-07 0.389602972E-08 0.124349309E-08 0.361083302E-09 0.941124470E-10 0.216464086E-10 0.429797170E-11 0.715104571E-12 0.955532243E-13 0.127041237E-13 0.130178062E-11 0.281764501E-09 0.398199668E-09 0.245131086E-11 0.101774270E-13 0.259680515E-13 0.199544008E-12 0.123252125E-11 0.638197004E-11 0.285381822E-10 0.112658646E-09 0.399338923E-09 0.128831157E-08 0.382449894E-08 0.105428226E-07 0.271951688E-07 0.660700934E-07 0.152027241E-06 0.332918347E-06 0.696752977E-06 0.139875294E-05 0.270225951E-05 0.503818228E-05 0.908815673E-05 0.158965577E-04 0.270158107E-04 0.446876511E-04 0.720601092E-04 0.113435497E-03 0.169975290E-03 0.243059039E-03 0.332462136E-03 0.435905153E-03 0.548864715E-03 0.664725958E-03 0.775293855E-03 0.871611817E-03 0.944979838E-03 0.988033367E-03 0.995720620E-03 0.966059393E-03 0.900541665E-03 0.804134062E-03 0.684833270E-03 0.552821730E-03 0.419277610E-03 0.294970872E-03 0.188828431E-03 0.106682572E-03 0.504441959E-04 0.179424733E-04 0.360624017E-05 0.232352540E-10
0.268356252E-04 0.862032757E-04 0.195188535E-03 0.365747866E-03 0.602089916E-03 0.899506966E-03 0.124466815E-02 0.161712989E-02 0.199169340E-02 0.234121899E-02 0.263953186E-02 0.286410283E-02 0.299827405E-02 0.303282519E-02 0.296676741E-02 0.280729495E-02 0.256888429E-02 0.227163010E-02 0.193897798E-02 0.159512088E-02 0.126239378E-02 0.959039957E-03 0.697679003E-03 0.484702963E-03 0.320640102E-03 0.206359851E-03 0.129016174E-03 0.782240604E-04 0.459078437E-04 0.260226079E-04 0.142127083E-04 0.745879061E-05 0.374942420E-05 0.179892129E-05 0.820409639E-06 0.353972126E-06 0.143697378E-06 0.545371286E-07 0.192054710E-07 0.621932150E-08 0.183200299E-08 0.484355445E-09 0.113015763E-09 0.227693125E-10 0.384544566E-11 0.521816260E-12 0.572803252E-13 0.168255763E-11 0.362376851E-09 0.511796328E-09 0.315587010E-11 0.241958299E-13 0.144213078E-12 0.109173228E-11 0.664474942E-11 0.339196726E-10 0.149582777E-09 0.582457527E-09 0.203663553E-08 0.648089182E-08 0.189733846E-07 0.515636458E-07 0.131069683E-06 0.313614095E-06 0.710230381E-06 0.152954374E-05 0.314530075E-05 0.619798993E-05 0.117405089E-04 0.214370048E-04 0.378211735E-04 0.646143089E-04 0.107094515E-03 0.172495798E-03 0.270400720E-03 0.413073809E-03 0.601483276E-03 0.837030180E-03 0.111591991E-02 0.142839842E-02 0.175883935E-02 0.208675722E-02 0.238865009E-02 0.264042150E-02 0.282005686E-02 0.291019958E-02 0.290028867E-02 0.278804405E-02 0.258007483E-02 0.229155971E-02 0.194493961E-02 0.156775082E-02 0.118969067E-02 0.839184853E-03 0.539843459E-03 0.307275797E-03 0.146849110E-03 0.530368816E-04 0.109129332E-04 0.685015933E-10
0.690311281E-04 0.217288441E-03 0.484842370E-03 0.898499857E-03 0.146665028E-02 0.217744918E-02 0.300010992E-02 0.388858281E-02 0.478674565E-02 0.563428272E-02 0.637258170E-02 0.695010973E-02 0.732692843E-02 0.747805042E-02 0.739546819E-02 0.708869519E-02 0.658376236E-02 0.592063786E-02 0.514924945E-02 0.432440499E-02 0.350015308E-02 0.272430899E-02 0.203392934E-02 0.145247951E-02 0.989139313E-03 0.654377218E-03 0.419937249E-03 0.260982953E-03 0.156786366E-03 0.908588117E-04 0.506713768E-04 0.271225799E-04 0.138913792E-04 0.678405013E-05 0.314644421E-05 0.137951918E-05 0.568690950E-06 0.219044523E-06 0.782470551E-07 0.256937600E-07 0.767257724E-08 0.205612860E-08 0.486284457E-09 0.993152158E-10 0.170071787E-10 0.234089289E-11 0.247436213E-12 0.209899828E-11 0.447721221E-09 0.631922847E-09 0.390750713E-11 0.785483332E-13 0.657452337E-12 0.490808305E-11 0.294700306E-10 0.148460633E-09 0.646241061E-09 0.248411047E-08 0.857433324E-08 0.269299996E-07 0.777936862E-07 0.208533265E-06 0.522580081E-06 0.123198674E-05 0.274704780E-05 0.582022358E-05 0.117642385E-04 0.227640867E-04 0.422979938E-04 0.756710433E-04 0.130646484E-03 0.218132220E-03 0.352847186E-03 0.553856604E-03 0.844832452E-03 0.125388021E-02 0.177631958E-02 0.240853080E-02 0.313358125E-02 0.392078841E-02 0.472734449E-02 0.550183980E-02 0.618917355E-02 0.673616026E-02 0.709709898E-02 0.723868096E-02 0.714366883E-02 0.681317132E-02 0.626716902E-02 0.554334465E-02 0.469410978E-02 0.378208049E-02 0.287406472E-02 0.203397684E-02 0.131534389E-02 0.754278211E-03 0.364132109E-03 0.133348571E-03 0.280101995E-04 0.170648010E-09
0.155878719E-03 0.481287279E-03 0.105898071E-02 0.194128486E-02 0.314167677E-02 0.463310769E-02 0.635209307E-02 0.820679031E-02 0.100872414E-01 0.118762478E-01 0.134597942E-01 0.147362975E-01 0.156243229E-01 0.160685051E-01 0.160435252E-01 0.155559573E-01 0.146438554E-01 0.133737959E-01 0.118353674E-01 0.101332366E-01 0.837729312E-02 0.667190785E-02 0.510568172E-02 0.374333770E-02 0.262119994E-02 0.178077421E-02 0.117205689E-02 0.746127393E-03 0.458576047E-03 0.271553203E-03 0.154574926E-03 0.843575108E-04 0.440057920E-04 0.218680871E-04 0.103113853E-04 0.459253806E-05 0.192184962E-05 0.750970401E-06 0.272004627E-06 0.905248285E-07 0.273887437E-07 0.743495487E-08 0.178102744E-08 0.368428732E-09 0.639122782E-10 0.891366668E-11 0.941719901E-12 0.257931914E-11 0.538181555E-09 0.759104613E-09 0.471793091E-11 0.274611551E-12 0.254204947E-11 0.187337663E-10 0.111078778E-09 0.552713930E-09 0.237668574E-08 0.902475339E-08 0.307681702E-07 0.954282271E-07 0.272132297E-06 0.719810373E-06 0.177898323E-05 0.413360976E-05 0.907785579E-05 0.189278799E-04 0.376173048E-04 0.715019414E-04 0.130371132E-03 0.228615783E-03 0.386439962E-03 0.630928727E-03 0.996712013E-03 0.152591791E-02 0.226709433E-02 0.327284844E-02 0.451623183E-02 0.597378798E-02 0.759414164E-02 0.930004846E-02 0.109943263E-01 0.125686806E-01 0.139140794E-01 0.149312569E-01 0.155401332E-01 0.156873912E-01 0.153515395E-01 0.145455841E-01 0.133168912E-01 0.117445281E-01 0.993379392E-02 0.800831057E-02 0.609947462E-02 0.433371775E-02 0.281850272E-02 0.162843429E-02 0.793755171E-03 0.294369413E-03 0.629570495E-04 0.371000064E-09
0.316382939E-03 0.959028781E-03 0.208197627E-02 0.377593725E-02 0.605727220E-02 0.886908919E-02 0.120917931E-01 0.155593194E-01 0.190775972E-01 0.224427562E-01 0.254575387E-01 0.279452167E-01 0.297608674E-01 0.308000650E-01 0.310051385E-01 0.303689707E-01 0.289361216E-01 0.268007834E-01 0.241010468E-01 0.210090391E-01 0.177169517E-01 0.144197829E-01 0.112965899E-01 0.849294011E-02 0.610772381E-02 0.425699446E-02 0.287130079E-02 0.187108526E-02 0.117586704E-02 0.711197790E-03 0.413045113E-03 0.229750178E-03 0.122035628E-03 0.616917023E-04 0.295660648E-04 0.133733556E-04 0.567937877E-05 0.225068698E-05 0.826290943E-06 0.278599913E-06 0.853640429E-07 0.234609825E-07 0.568883429E-08 0.119112331E-08 0.209146686E-09 0.295289244E-10 0.314574733E-11 0.319920848E-11 0.634177322E-09 0.893914054E-09 0.561266181E-11 0.901626972E-12 0.854448890E-11 0.622210755E-10 0.364631964E-09 0.179345594E-08 0.762318741E-08 0.286112130E-07 0.963952900E-07 0.295364202E-06 0.831802367E-06 0.217174829E-05 0.529503359E-05 0.121296907E-04 0.262428148E-04 0.538625864E-04 0.105281346E-03 0.196631299E-03 0.351928145E-03 0.605145877E-03 0.100193860E-02 0.160048576E-02 0.247086654E-02 0.369238830E-02 0.534847705E-02 0.751907611E-02 0.101185637E-01 0.130727608E-01 0.162586123E-01 0.195131078E-01 0.226477999E-01 0.254663453E-01 0.277824439E-01 0.294360369E-01 0.303063747E-01 0.303214472E-01 0.294634551E-01 0.277710147E-01 0.253377836E-01 0.223079510E-01 0.188679844E-01 0.152348988E-01 0.116400793E-01 0.830889959E-02 0.543704210E-02 0.316539849E-02 0.155733293E-02 0.584234251E-03 0.126917424E-03 0.721263327E-09
0.587854360E-03 0.175064371E-02 0.375146721E-02 0.673186965E-02 0.107021239E-01 0.155510297E-01 0.210694019E-01 0.269801375E-01 0.329690613E-01 0.387129076E-01 0.439027064E-01 0.482621677E-01 0.515618026E-01 0.536294915E-01 0.543583520E-01 0.537124723E-01 0.517303236E-01 0.485253669E-01 0.442824662E-01 0.392489359E-01 0.337187536E-01 0.280099157E-01 0.224360563E-01 0.172757804E-01 0.127446074E-01 0.910427049E-02 0.628802413E-02 0.419180514E-02 0.269218558E-02 0.166241685E-02 0.984726939E-03 0.558106753E-03 0.301771652E-03 0.155150672E-03 0.755581277E-04 0.347007335E-04 0.149515690E-04 0.600752082E-05 0.223483994E-05 0.763133983E-06 0.236706924E-06 0.658334400E-07 0.161501408E-07 0.342052298E-08 0.607495332E-09 0.867587946E-10 0.933720636E-11 0.414366631E-11 0.736169348E-09 0.103697539E-08 0.664910878E-11 0.268413612E-11 0.254538855E-10 0.183310297E-09 0.106253406E-08 0.516929610E-08 0.217320366E-07 0.806587721E-07 0.268664479E-06 0.813579220E-06 0.226339739E-05 0.583477413E-05 0.140377879E-04 0.317106023E-04 0.676035488E-04 0.136616189E-03 0.262693036E-03 0.482209085E-03 0.847434567E-03 0.142938481E-02 0.231911521E-02 0.362637895E-02 0.547465729E-02 0.799193606E-02 0.112973079E-01 0.154843759E-01 0.203456022E-01 0.257055070E-01 0.313167647E-01 0.368823409E-01 0.420833603E-01 0.466077663E-01 0.501761250E-01 0.525621548E-01 0.536072589E-01 0.532296188E-01 0.514283031E-01 0.482841879E-01 0.439571850E-01 0.386805683E-01 0.327508226E-01 0.265128408E-01 0.203381870E-01 0.145955905E-01 0.961411837E-02 0.564113306E-02 0.280055776E-02 0.106179330E-02 0.233788029E-03 0.127799182E-08
0.101449026E-02 0.296983472E-02 0.628428906E-02 0.111581329E-01 0.175751448E-01 0.253320634E-01 0.340851992E-01 0.434021428E-01 0.528099239E-01 0.618348159E-01 0.700326040E-01 0.770098865E-01 0.824387446E-01 0.860667452E-01 0.877244025E-01 0.873315409E-01 0.849030167E-01 0.805532038E-01 0.744976178E-01 0.670490637E-01 0.586051233E-01 0.496246181E-01 0.405921973E-01 0.319736600E-01 0.241679195E-01 0.176781695E-01 0.124928700E-01 0.851428695E-02 0.558561319E-02 0.351989269E-02 0.212582247E-02 0.122729305E-02 0.675357005E-03 0.353059411E-03 0.174680725E-03 0.814370796E-04 0.355928096E-04 0.144964233E-04 0.546295996E-05 0.188866625E-05 0.592826211E-06 0.166781930E-06 0.413737666E-07 0.885902551E-08 0.159044677E-08 0.229589028E-09 0.249637915E-10 0.582112353E-11 0.844668779E-09 0.118897225E-08 0.795058550E-11 0.724089929E-11 0.682507661E-10 0.486466534E-09 0.279086465E-08 0.134379716E-07 0.559044189E-07 0.205276550E-06 0.676241257E-06 0.202451633E-05 0.556550640E-05 0.141693808E-04 0.336464182E-04 0.749653118E-04 0.157513379E-03 0.313469442E-03 0.593088043E-03 0.107028254E-02 0.184740766E-02 0.305767241E-02 0.486336183E-02 0.744815404E-02 0.110024847E-01 0.157021154E-01 0.216816757E-01 0.290067419E-01 0.372574702E-01 0.460898839E-01 0.550725348E-01 0.637285113E-01 0.715795606E-01 0.781853050E-01 0.831737444E-01 0.862617865E-01 0.872671157E-01 0.861136317E-01 0.828324258E-01 0.775610954E-01 0.705406815E-01 0.621110238E-01 0.527012125E-01 0.428145602E-01 0.330028869E-01 0.238276981E-01 0.158070829E-01 0.934964977E-02 0.468299631E-02 0.179293635E-02 0.399365730E-03 0.209553019E-08
0.164516130E-02 0.473632012E-02 0.989951193E-02 0.173918903E-01 0.271338560E-01 0.387760624E-01 0.517836548E-01 0.655194521E-01 0.793143138E-01 0.925198793E-01 0.104543895E+00 0.114871137E+00 0.123074718E+00 0.128821373E+00 0.131875113E+00 0.132101521E+00 0.129474252E+00 0.124083787E+00 0.116146512E+00 0.106010698E+00 0.941539854E-01 0.811669752E-01 0.677182749E-01 0.545001328E-01 0.421597511E-01 0.315474197E-01 0.227935426E-01 0.158718787E-01 0.106304903E-01 0.683376612E-02 0.420664437E-02 0.247318693E-02 0.138472160E-02 0.735907000E-03 0.369829970E-03 0.174989385E-03 0.775627268E-04 0.320142462E-04 0.122184765E-04 0.427555779E-05 0.135764026E-05 0.386214396E-06 0.968416813E-07 0.209532480E-07 0.380030984E-08 0.554152391E-09 0.608495476E-10 0.904976181E-11 0.960247992E-09 0.135065492E-08 0.976297081E-11 0.178385570E-10 0.166814312E-09 0.117758203E-08 0.669067424E-08 0.319007754E-07 0.131388433E-06 0.477492051E-06 0.155626276E-05 0.460747970E-05 0.125194147E-04 0.314858153E-04 0.738088493E-04 0.162230222E-03 0.336019817E-03 0.658678764E-03 0.122649898E-02 0.217641797E-02 0.369080249E-02 0.599623658E-02 0.935347285E-02 0.140366266E-01 0.203016307E-01 0.283465944E-01 0.382696129E-01 0.500316881E-01 0.628937185E-01 0.762710273E-01 0.894963667E-01 0.101885453E+00 0.112795763E+00 0.121670939E+00 0.128068820E+00 0.131675139E+00 0.132307172E+00 0.129912555E+00 0.124565728E+00 0.116466895E+00 0.105941229E+00 0.934389159E-01 0.795311928E-01 0.648995340E-01 0.503101908E-01 0.365677178E-01 0.244435202E-01 0.145782027E-01 0.736614550E-02 0.284605753E-02 0.640262559E-03 0.321937099E-08
0.253086723E-02 0.716792187E-02 0.148018273E-01 0.257292800E-01 0.397493728E-01 0.562946685E-01 0.745720565E-01 0.936884359E-01 0.112747282E+00 0.130913332E+00 0.147449091E+00 0.161730066E+00 0.173247099E+00 0.181601956E+00 0.186502337E+00 0.187760487E+00 0.185297638E+00 0.179155588E+00 0.169513911E+00 0.156709313E+00 0.141249731E+00 0.123815201E+00 0.105234787E+00 0.864337012E-01 0.683500916E-01 0.522716045E-01 0.385839604E-01 0.274339169E-01 0.187499486E-01 0.122908186E-01 0.770887965E-02 0.461415015E-02 0.262792781E-02 0.141946902E-02 0.724432932E-03 0.347817986E-03 0.156316019E-03 0.653713869E-04 0.252615846E-04 0.894467394E-05 0.287236708E-05 0.825944198E-06 0.209249876E-06 0.457277949E-07 0.837437142E-08 0.123276245E-08 0.136625641E-09 0.153275847E-10 0.108355680E-08 0.152284996E-08 0.125386533E-10 0.404918529E-10 0.375558556E-09 0.262738054E-08 0.147923496E-07 0.698743534E-07 0.285038652E-06 0.102563217E-05 0.330830517E-05 0.968885706E-05 0.260280303E-04 0.646780027E-04 0.149708663E-03 0.324682071E-03 0.663058716E-03 0.128049543E-02 0.234711310E-02 0.409646239E-02 0.682687853E-02 0.108906412E-01 0.166675001E-01 0.245218053E-01 0.347464904E-01 0.475018024E-01 0.627600625E-01 0.802694038E-01 0.988695323E-01 0.117676876E+00 0.135763362E+00 0.152243316E+00 0.166338876E+00 0.177418917E+00 0.185014620E+00 0.188818201E+00 0.188673422E+00 0.184565499E+00 0.176613897E+00 0.165073022E+00 0.150337785E+00 0.132953838E+00 0.113625079E+00 0.932143554E-01 0.727245659E-01 0.532492511E-01 0.358828939E-01 0.215846132E-01 0.110020563E-01 0.428758096E-02 0.972803042E-03 0.468140060E-08