<?xml version="1.0"?>
<VTKFile type="StructuredGrid">
<StructuredGrid WholeExtent="     0   100     0   100     0     0">
<Piece Extent="     0   100     0   100     0     0">
<Points>
<DataArray type="Float32" NumberOfComponents="3"/>
0.000000000E+00 0.000000000E+00 0.000000000E+00 0.199999996E-01 0.000000000E+00 0.000000000E+00 0.399999991E-01 0.000000000E+00 0.000000000E+00 0.599999987E-01 0.000000000E+00 0.000000000E+00 0.799999982E-01 0.000000000E+00 0.000000000E+00 0.100000001E+00 0.000000000E+00 0.000000000E+00 0.119999997E+00 0.000000000E+00 0.000000000E+00 0.140000001E+00 0.000000000E+00 0.000000000E+00 0.159999996E+00 0.000000000E+00 0.000000000E+00 0.180000007E+00 0.000000000E+00 0.000000000E+00 0.200000003E+00 0.000000000E+00 0.000000000E+00 0.219999999E+00 0.000000000E+00 0.000000000E+00 0.239999995E+00 0.000000000E+00 0.000000000E+00 0.259999990E+00 0.000000000E+00 0.000000000E+00 0.280000001E+00 0.000000000E+00 0.000000000E+00 0.300000012E+00 0.000000000E+00 0.000000000E+00 0.319999993E+00 0.000000000E+00 0.000000000E+00 0.340000004E+00 0.000000000E+00 0.000000000E+00 0.360000014E+00 0.000000000E+00 0.000000000E+00 0.379999995E+00 0.000000000E+00 0.000000000E+00 0.400000006E+00 0.000000000E+00 0.000000000E+00 0.419999987E+00 0.000000000E+00 0.000000000E+00 0.439999998E+00 0.000000000E+00 0.000000000E+00 0.460000008E+00 0.000000000E+00 0.000000000E+00 0.479999989E+00 0.000000000E+00 0.000000000E+00 0.500000000E+00 0.000000000E+00 0.000000000E+00 0.519999981E+00 0.000000000E+00 0.000000000E+00 0.540000021E+00 0.000000000E+00 0.000000000E+00 0.560000002E+00 0.000000000E+00 0.000000000E+00 0.579999983E+00 0.000000000E+00 0.000000000E+00 0.600000024E+00 0.000000000E+00 0.000000000E+00 0.620000005E+00 0.000000000E+00 0.000000000E+00 0.639999986E+00 0.000000000E+00 0.000000000E+00 0.660000026E+00 0.000000000E+00 0.000000000E+00 0.680000007E+00 0.000000000E+00 0.000000000E+00 0.699999988E+00 0.000000000E+00 0.000000000E+00 0.720000029E+00 0.000000000E+00 0.000000000E+00 0.740000010E+00 0.000000000E+00 0.000000000E+00 0.759999990E+00 0.000000000E+00 0.000000000E+00 0.779999971E+00 0.000000000E+00 0.000000000E+00 0.800000012E+00 0.000000000E+00 0.000000000E+00 0.819999993E+00 0.000000000E+00 0.000000000E+00 0.839999974E+00 0.000000000E+00 0.000000000E+00 0.860000014E+00 0.000000000E+00 0.000000000E+00 0.879999995E+00 0.000000000E+00 0.000000000E+00 0.899999976E+00 0.000000000E+00 0.000000000E+00 0.920000017E+00 0.000000000E+00 0.000000000E+00 0.939999998E+00 0.000000000E+00 0.000000000E+00 0.959999979E+00 0.000000000E+00 0.000000000E+00 0.980000019E+00 0.000000000E+00 0.000000000E+00 0.100000000E+01 0.000000000E+00 0.000000000E+00 0.101999998E+01 0.000000000E+00 0.000000000E+00 0.103999996E+01 0.000000000E+00 0.000000000E+00 0.105999994E+01 0.000000000E+00 0.000000000E+00 0.108000004E+01 0.000000000E+00 0.000000000E+00 0.110000002E+01 0.000000000E+00 0.000000000E+00 0.112000000E+01 0.000000000E+00 0.000000000E+00 0.113999999E+01 0.000000000E+00 0.000000000E+00 0.115999997E+01 0.000000000E+00 0.000000000E+00 0.117999995E+01 0.000000000E+00 0.000000000E+00 0.120000005E+01 0.000000000E+00 0.000000000E+00 0.122000003E+01 0.000000000E+00 0.000000000E+00 0.124000001E+01 0.000000000E+00 0.000000000E+00 0.125999999E+01 0.000000000E+00 0.000000000E+00 0.127999997E+01 0.000000000E+00 0.000000000E+00 0.129999995E+01 0.000000000E+00 0.000000000E+00 0.132000005E+01 0.000000000E+00 0.000000000E+00 0.134000003E+01 0.000000000E+00 0.000000000E+00 0.136000001E+01 0.000000000E+00 0.000000000E+00 0.138000000E+01 0.000000000E+00 0.000000000E+00 0.139999998E+01 0.000000000E+00 0.000000000E+00 0.141999996E+01 0.000000000E+00 0.000000000E+00 0.144000006E+01 0.000000000E+00 0.000000000E+00 0.146000004E+01 0.000000000E+00 0.000000000E+00 0.148000002E+01 0.000000000E+00 0.000000000E+00 0.150000000E+01 0.000000000E+00 0.000000000E+00 0.151999998E+01 0.000000000E+00 0.000000000E+00 0.153999996E+01 0.000000000E+00 0.000000000E+00 0.155999994E+01 0.000000000E+00 0.000000000E+00 0.158000004E+01 0.000000000E+00 0.000000000E+00 0.160000002E+01 0.000000000E+00 0.000000000E+00 0.162000000E+01 0.000000000E+00 0.000000000E+00 0.163999999E+01 0.000000000E+00 0.000000000E+00 0.165999997E+01 0.000000000E+00 0.000000000E+00 0.167999995E+01 0.000000000E+00 0.000000000E+00 0.170000005E+01 0.000000000E+00 0.000000000E+00 0.172000003E+01 0.000000000E+00 0.000000000E+00 0.174000001E+01 0.000000000E+00 0.000000000E+00 0.175999999E+01 0.000000000E+00 0.000000000E+00 0.177999997E+01 0.000000000E+00 0.000000000E+00 0.179999995E+01 0.000000000E+00 0.000000000E+00 0.182000005E+01 0.000000000E+00 0.000000000E+00 0.184000003E+01 0.000000000E+00 0.000000000E+00 0.186000001E+01 0.000000000E+00 0.000000000E+00 0.188000000E+01 0.000000000E+00 0.000000000E+00 0.189999998E+01 0.000000000E+00 0.000000000E+00 0.191999996E+01 0.000000000E+00 0.000000000E+00 0.194000006E+01 0.000000000E+00 0.000000000E+00 0.196000004E+01 0.000000000E+00 0.000000000E+00 0.198000002E+01 0.000000000E+00 0.000000000E+00 0.200000000E+01 0.000000000E+00 0.000000000E+00
0.000000000E+00 0.999999978E-02 0.000000000E+00 0.199999996E-01 0.999999978E-02 0.000000000E+00 0.399999991E-01 0.999999978E-02 0.000000000E+00 0.599999987E-01 0.999999978E-02 0.000000000E+00 0.799999982E-01 0.999999978E-02 0.000000000E+00 0.100000001E+00 0.999999978E-02 0.000000000E+00 0.119999997E+00 0.999999978E-02 0.000000000E+00 0.140000001E+00 0.999999978E-02 0.000000000E+00 0.159999996E+00 0.999999978E-02 0.000000000E+00 0.180000007E+00 0.999999978E-02 0.000000000E+00 0.200000003E+00 0.999999978E-02 0.000000000E+00 0.219999999E+00 0.999999978E-02 0.000000000E+00 0.239999995E+00 0.999999978E-02 0.000000000E+00 0.259999990E+00 0.999999978E-02 0.000000000E+00 0.280000001E+00 0.999999978E-02 0.000000000E+00 0.300000012E+00 0.999999978E-02 0.000000000E+00 0.319999993E+00 0.999999978E-02 0.000000000E+00 0.340000004E+00 0.999999978E-02 0.000000000E+00 0.360000014E+00 0.999999978E-02 0.000000000E+00 0.379999995E+00 0.999999978E-02 0.000000000E+00 0.400000006E+00 0.999999978E-02 0.000000000E+00 0.419999987E+00 0.999999978E-02 0.000000000E+00 0.439999998E+00 0.999999978E-02 0.000000000E+00 0.460000008E+00 0.999999978E-02 0.000000000E+00 0.479999989E+00 0.999999978E-02 0.000000000E+00 0.500000000E+00 0.999999978E-02 0.000000000E+00 0.519999981E+00 0.999999978E-02 0.000000000E+00 0.540000021E+00 0.999999978E-02 0.000000000E+00 0.560000002E+00 0.999999978E-02 0.000000000E+00 0.579999983E+00 0.999999978E-02 0.000000000E+00 0.600000024E+00 0.999999978E-02 0.000000000E+00 0.620000005E+00 0.999999978E-02 0.000000000E+00 0.639999986E+00 0.999999978E-02 0.000000000E+00 0.660000026E+00 0.999999978E-02 0.000000000E+00 0.680000007E+00 0.999999978E-02 0.000000000E+00 0.699999988E+00 0.999999978E-02 0.000000000E+00 0.720000029E+00 0.999999978E-02 0.000000000E+00 0.740000010E+00 0.999999978E-02 0.000000000E+00 0.759999990E+00 0.999999978E-02 0.000000000E+00 0.779999971E+00 0.999999978E-02 0.000000000E+00 0.800000012E+00 0.999999978E-02 0.000000000E+00 0.819999993E+00 0.999999978E-02 0.000000000E+00 0.839999974E+00 0.999999978E-02 0.000000000E+00 0.860000014E+00 0.999999978E-02 0.000000000E+00 0.879999995E+00 0.999999978E-02 0.000000000E+00 0.899999976E+00 0.999999978E-02 0.000000000E+00 0.920000017E+00 0.999999978E-02 0.000000000E+00 0.939999998E+00 0.999999978E-02 0.000000000E+00 0.959999979E+00 0.999999978E-02 0.000000000E+00 0.980000019E+00 0.999999978E-02 0.000000000E+00 0.100000000E+01 0.999999978E-02 0.000000000E+00 0.101999998E+01 0.999999978E-02 0.000000000E+00 0.103999996E+01 0.999999978E-02 0.000000000E+00 0.105999994E+01 0.999999978E-02 0.000000000E+00 0.108000004E+01 0.999999978E-02 0.000000000E+00 0.110000002E+01 0.999999978E-02 0.000000000E+00 0.112000000E+01 0.999999978E-02 0.000000000E+00 0.113999999E+01 0.999999978E-02 0.000000000E+00 0.115999997E+01 0.999999978E-02 0.000000000E+00 0.117999995E+01 0.999999978E-02 0.000000000E+00 0.120000005E+01 0.999999978E-02 0.000000000E+00 0.122000003E+01 0.999999978E-02 0.000000000E+00 0.124000001E+01 0.999999978E-02 0.000000000E+00 0.125999999E+01 0.999999978E-02 0.000000000E+00 0.127999997E+01 0.999999978E-02 0.000000000E+00 0.129999995E+01 0.999999978E-02 0.000000000E+00 0.132000005E+01 0.999999978E-02 0.000000000E+00 0.134000003E+01 0.999999978E-02 0.000000000E+00 0.136000001E+01 0.999999978E-02 0.000000000E+00 0.138000000E+01 0.999999978E-02 0.000000000E+00 0.139999998E+01 0.999999978E-02 0.000000000E+00 0.141999996E+01 0.999999978E-02 0.000000000E+00 0.144000006E+01 0.999999978E-02 0.000000000E+00 0.146000004E+01 0.999999978E-02 0.000000000E+00 0.148000002E+01 0.999999978E-02 0.000000000E+00 0.150000000E+01 0.999999978E-02 0.000000000E+00 0.151999998E+01 0.999999978E-02 0.000000000E+00 0.153999996E+01 0.999999978E-02 0.000000000E+00 0.155999994E+01 0.999999978E-02 0.000000000E+00 0.158000004E+01 0.999999978E-02 0.000000000E+00 0.160000002E+01 0.999999978E-02 0.000000000E+00 0.162000000E+01 0.999999978E-02 0.000000000E+00 0.163999999E+01 0.999999978E-02 0.000000000E+00 0.165999997E+01 0.999999978E-02 0.000000000E+00 0.167999995E+01 0.999999978E-02 0.000000000E+00 0.170000005E+01 0.999999978E-02 0.000000000E+00 0.172000003E+01 0.999999978E-02 0.000000000E+00 0.174000001E+01 0.999999978E-02 0.000000000E+00 0.175999999E+01 0.999999978E-02 0.000000000E+00 0.177999997E+01 0.999999978E-02 0.000000000E+00 0.179999995E+01 0.999999978E-02 0.000000000E+00 0.182000005E+01 0.999999978E-02 0.000000000E+00 0.184000003E+01 0.999999978E-02 0.000000000E+00 0.186000001E+01 0.999999978E-02 0.000000000E+00 0.188000000E+01 0.999999978E-02 0.000000000E+00 0.189999998E+01 0.999999978E-02 0.000000000E+00 0.191999996E+01 0.999999978E-02 0.000000000E+00 0.194000006E+01 0.999999978E-02 0.000000000E+00 0.196000004E+01 0.999999978E-02 0.000000000E+00 0.198000002E+01 0.999999978E-02 0.000000000E+00 0.200000000E+01 0.999999978E-02 0.000000000E+00
[...]
<CellData Scalars="Temperature, U, V">
<DataArray type="Float32" Name="Temp, K"/>
0.259123251E-09 0.133618416E-08 0.439259074E-08 0.109075309E-07 0.221749588E-07 0.387204793E-07 0.598836181E-07 0.837407654E-07 0.107413264E-06 0.127670333E-06 0.141644705E-06 0.147454031E-06 0.144563501E-06 0.133811938E-06 0.117125758E-06 0.970278791E-07 0.760902310E-07 0.564718405E-07 0.396372251E-07 0.262834678E-07 0.164426996E-07 0.968853975E-08 0.536679989E-08 0.278884982E-08 0.135637435E-08 0.644841125E-09 0.298993830E-09 0.134878969E-09 0.590393082E-10 0.250027238E-10 0.102115608E-10 0.400794025E-11 0.150582053E-11 0.539201496E-12 0.183116719E-12 0.586548767E-13 0.176096794E-13 0.491974185E-14 0.126839319E-14 0.298839444E-15 0.635968152E-16 0.120533119E-16 0.199901099E-17 0.283634468E-18 0.435579449E-19 0.107149742E-16 0.509177043E-14 0.129268493E-11 0.170480713E-09 0.241610731E-09 0.246658076E-11 0.128242584E-13 0.375737760E-16 0.678632869E-19 0.613124688E-19 0.443105765E-18 0.274175900E-17 0.148459101E-16 0.715941959E-16 0.311877505E-15 0.124161488E-14 0.456181410E-14 0.155977475E-13 0.499909088E-13 0.151132348E-12 0.433376588E-12 0.118453435E-11 0.309961085E-11 0.779566082E-11 0.189115477E-10 0.443944950E-10 0.101142768E-09 0.224239974E-09 0.484998153E-09 0.102568054E-08 0.212547535E-08 0.413016421E-08 0.754092522E-08 0.129604265E-07 0.210013607E-07 0.321291225E-07 0.464560443E-07 0.635339887E-07 0.822156849E-07 0.100659754E-06 0.116530856E-06 0.127393704E-06 0.131235296E-06 0.126985640E-06 0.114882290E-06 0.965404823E-07 0.746678026E-07 0.524637649E-07 0.328603100E-07 0.178341146E-07 0.802045097E-08 0.277131185E-08 0.637831954E-09 0.699091063E-10 0.325112580E-15
0.253599652E-08 0.125875079E-07 0.402610070E-07 0.981065043E-07 0.196995231E-06 0.341487038E-06 0.526523309E-06 0.736723905E-06 0.948620539E-06 0.113521014E-05 0.127154271E-05 0.133983872E-05 0.133285141E-05 0.125474639E-05 0.111947986E-05 0.947293017E-06 0.760360535E-06 0.578712388E-06 0.417320990E-06 0.284800507E-06 0.183669400E-06 0.111738323E-06 0.639993658E-07 0.344351037E-07 0.173634849E-07 0.854279936E-08 0.409237355E-08 0.190441818E-08 0.858747962E-09 0.374180242E-09 0.157064348E-09 0.632967567E-10 0.243977824E-10 0.895668175E-11 0.311676986E-11 0.102254826E-11 0.314352602E-12 0.899161049E-13 0.237347051E-13 0.572622817E-14 0.124822799E-14 0.242426415E-15 0.412239950E-16 0.600149272E-17 0.748824120E-18 0.230329749E-16 0.107264110E-13 0.270322588E-11 0.355584673E-09 0.503458497E-09 0.513679507E-11 0.267851249E-13 0.790828870E-16 0.287079856E-18 0.133004346E-17 0.937457768E-17 0.565814237E-16 0.299052288E-15 0.140848069E-14 0.599470247E-14 0.233237298E-13 0.837591444E-13 0.279920835E-12 0.876752826E-12 0.258958133E-11 0.725164416E-11 0.193450707E-10 0.493712397E-10 0.121003110E-09 0.285772184E-09 0.652353283E-09 0.144344281E-08 0.310367421E-08 0.650016219E-08 0.132884077E-07 0.265692606E-07 0.498750765E-07 0.880835884E-07 0.146635344E-06 0.230487089E-06 0.342567773E-06 0.481999450E-06 0.642563862E-06 0.812011365E-06 0.972736757E-06 0.110405961E-05 0.118587639E-05 0.120298841E-05 0.114900615E-05 0.102868864E-05 0.857816190E-06 0.660348803E-06 0.463348215E-06 0.290936924E-06 0.159021994E-06 0.724428375E-07 0.255507402E-07 0.606612272E-08 0.695320523E-09 0.323443004E-14
0.171860073E-07 0.824359105E-07 0.257291333E-06 0.616400882E-06 0.122376355E-05 0.210683265E-05 0.323819108E-05 0.453131406E-05 0.585209546E-05 0.704305558E-05 0.795383494E-05 0.847028787E-05 0.853535130E-05 0.815726526E-05 0.740410132E-05 0.638691699E-05 0.523631661E-05 0.407832249E-05 0.301493787E-05 0.211289557E-05 0.140154100E-05 0.878351500E-06 0.519000707E-06 0.288478418E-06 0.150462512E-06 0.764318244E-07 0.377399374E-07 0.180747861E-07 0.837638048E-08 0.374633391E-08 0.161232594E-08 0.665548339E-09 0.262544597E-09 0.985700133E-10 0.350587441E-10 0.117510680E-10 0.368960244E-11 0.107769566E-11 0.290486249E-12 0.715716345E-13 0.159369198E-13 0.316297730E-14 0.549918883E-15 0.819077287E-16 0.101815751E-16 0.379480687E-16 0.169687296E-13 0.424406127E-11 0.556590052E-09 0.787281074E-09 0.803213052E-11 0.420219110E-13 0.125225589E-15 0.245194986E-17 0.185782185E-16 0.128001673E-15 0.755730895E-15 0.390971562E-14 0.180330994E-13 0.751909656E-13 0.286663054E-12 0.100883191E-11 0.330378585E-11 0.101382097E-10 0.293277798E-10 0.803990000E-10 0.209840451E-09 0.523575461E-09 0.125346156E-08 0.288873370E-08 0.642758202E-08 0.138447467E-07 0.289376683E-07 0.588207669E-07 0.116506151E-06 0.225270895E-06 0.409433795E-06 0.701010833E-06 0.113288547E-05 0.173114654E-05 0.250513790E-05 0.343735519E-05 0.447629827E-05 0.553552991E-05 0.650120910E-05 0.724833944E-05 0.766332960E-05 0.766827907E-05 0.724084794E-05 0.642402665E-05 0.532189097E-05 0.408105643E-05 0.286110912E-05 0.180107224E-05 0.990931767E-06 0.456685683E-06 0.164039506E-06 0.400297360E-07 0.477497863E-08 0.221348733E-13
0.869002292E-07 0.403654752E-06 0.123121686E-05 0.290250000E-05 0.569952681E-05 0.974489103E-05 0.149260968E-04 0.208774236E-04 0.270251039E-04 0.326838672E-04 0.371809256E-04 0.399782402E-04 0.407664738E-04 0.395115821E-04 0.364469997E-04 0.320163053E-04 0.267821470E-04 0.213234034E-04 0.161431981E-04 0.116056581E-04 0.791015009E-05 0.510156087E-05 0.310662631E-05 0.178202765E-05 0.960434136E-06 0.503240699E-06 0.255887045E-06 0.126010505E-06 0.599616783E-07 0.275017786E-07 0.121241657E-07 0.512136600E-08 0.206554041E-08 0.792267252E-09 0.287704444E-09 0.984086215E-10 0.315195162E-10 0.938934781E-11 0.258081295E-11 0.648445707E-12 0.147267493E-12 0.298191037E-13 0.529147793E-14 0.804866641E-15 0.101910359E-15 0.631662909E-16 0.238928055E-13 0.592905109E-11 0.774894815E-09 0.109497844E-08 0.111764435E-10 0.586916380E-13 0.178264264E-15 0.233151493E-16 0.186591670E-15 0.125900489E-14 0.728429869E-14 0.369493017E-13 0.167165273E-12 0.683868327E-12 0.255840054E-11 0.883499697E-11 0.283879413E-10 0.854485857E-10 0.242367876E-09 0.651138865E-09 0.166440428E-08 0.406405798E-08 0.951287582E-08 0.214132410E-07 0.464830876E-07 0.975543202E-07 0.198391589E-06 0.391754071E-06 0.752521032E-06 0.140851671E-05 0.248113179E-05 0.412244026E-05 0.647392699E-05 0.962703052E-05 0.135777664E-04 0.181868709E-04 0.231592985E-04 0.280550539E-04 0.323370296E-04 0.354521399E-04 0.369316003E-04 0.364896769E-04 0.340962142E-04 0.300030752E-04 0.247125317E-04 0.188903177E-04 0.132385230E-04 0.835693299E-05 0.462780372E-05 0.215648220E-05 0.787928627E-06 0.197232296E-06 0.244149518E-07 0.112383234E-12
0.351055633E-06 0.158220564E-05 0.472292550E-05 0.109644070E-04 0.213013882E-04 0.361672755E-04 0.551856028E-04 0.771113482E-04 0.999759432E-04 0.121397366E-03 0.138982374E-03 0.150733365E-03 0.155378162E-03 0.152560649E-03 0.142861856E-03 0.127656036E-03 0.108838358E-03 0.884869733E-04 0.685306441E-04 0.504879099E-04 0.353213072E-04 0.234186882E-04 0.146821503E-04 0.868262487E-05 0.483056192E-05 0.260824322E-05 0.136447034E-05 0.690269928E-06 0.336966480E-06 0.158354084E-06 0.714465855E-07 0.308555173E-07 0.127117374E-07 0.497650809E-08 0.184327720E-08 0.642731368E-09 0.209769355E-09 0.636548175E-10 0.178199729E-10 0.455989239E-11 0.105474917E-11 0.217562906E-12 0.393420885E-13 0.610087805E-14 0.787633227E-15 0.152162243E-15 0.315863838E-13 0.777366539E-11 0.101203246E-08 0.142863332E-08 0.145962790E-10 0.769723708E-13 0.250972183E-15 0.182053083E-15 0.144376533E-14 0.955677967E-14 0.542744526E-13 0.270349959E-12 0.120146785E-11 0.482905816E-11 0.177502752E-10 0.602223618E-10 0.190070196E-09 0.561790003E-09 0.156401425E-08 0.412183621E-08 0.103283391E-07 0.247023060E-07 0.565842235E-07 0.124514585E-06 0.263926864E-06 0.540169651E-06 0.106977609E-05 0.205402580E-05 0.383014276E-05 0.694682558E-05 0.118719599E-04 0.191615200E-04 0.292709683E-04 0.424017162E-04 0.583455367E-04 0.763712378E-04 0.951987531E-04 0.113091039E-03 0.128067724E-03 0.138212708E-03 0.142018107E-03 0.138694653E-03 0.128373402E-03 0.112145848E-03 0.919167724E-04 0.700880628E-04 0.491268984E-04 0.311079493E-04 0.173383778E-04 0.816537977E-05 0.303149909E-05 0.776919592E-06 0.995237528E-07 0.453290346E-12
0.118460594E-05 0.518984052E-05 0.151805134E-04 0.347291934E-04 0.667675631E-04 0.112559166E-03 0.171022417E-03 0.238583583E-03 0.309578172E-03 0.377091230E-03 0.434047601E-03 0.474332162E-03 0.493736065E-03 0.490566250E-03 0.465823716E-03 0.422936253E-03 0.367111003E-03 0.304439949E-03 0.240938665E-03 0.181704469E-03 0.130343717E-03 0.887502683E-04 0.572253339E-04 0.348528520E-04 0.199954484E-04 0.111149857E-04 0.597692406E-05 0.310353062E-05 0.155297016E-05 0.747147737E-06 0.344720263E-06 0.152082634E-06 0.639459756E-07 0.255294612E-07 0.963631130E-08 0.342212658E-08 0.113696497E-08 0.351088630E-09 0.999920632E-10 0.260273521E-10 0.612403531E-11 0.128509443E-11 0.236467286E-12 0.373270987E-13 0.490734975E-14 0.606740500E-15 0.401685317E-13 0.979519590E-11 0.126968636E-08 0.179053039E-08 0.183212178E-10 0.970698402E-13 0.414078012E-15 0.115443603E-14 0.900652420E-14 0.585796263E-13 0.327042945E-12 0.160198016E-11 0.700258298E-11 0.276863341E-10 0.100104591E-09 0.334033801E-09 0.103661379E-08 0.301150660E-08 0.823653235E-08 0.213121147E-07 0.523947996E-07 0.122845421E-06 0.275597188E-06 0.593340530E-06 0.122905340E-05 0.245511364E-05 0.473905038E-05 0.885554800E-05 0.160450254E-04 0.282281871E-04 0.468500184E-04 0.735298818E-04 0.109373381E-03 0.154501249E-03 0.207636098E-03 0.265878421E-03 0.324781286E-03 0.378771918E-03 0.421885343E-03 0.448695850E-03 0.455268426E-03 0.439944415E-03 0.403780170E-03 0.350532122E-03 0.286145369E-03 0.217819645E-03 0.152794499E-03 0.970879846E-04 0.544674549E-04 0.259143362E-04 0.976645151E-05 0.255800273E-05 0.338168206E-06 0.151875951E-11
0.344648220E-05 0.147022593E-04 0.421902150E-04 0.951726979E-04 0.181089112E-03 0.303059496E-03 0.458314462E-03 0.637913879E-03 0.827742624E-03 0.101049722E-02 0.116823625E-02 0.128501665E-02 0.134918652E-02 0.135498121E-02 0.130319782E-02 0.120086700E-02 0.105999969E-02 0.895631383E-03 0.723525416E-03 0.557952910E-03 0.409952248E-03 0.286358030E-03 0.189700033E-03 0.118865828E-03 0.702502584E-04 0.401646103E-04 0.221812625E-04 0.118122198E-04 0.605393097E-05 0.297955671E-05 0.140473844E-05 0.632624335E-06 0.271277315E-06 0.110360951E-06 0.424171205E-07 0.153288937E-07 0.517987520E-08 0.162617042E-08 0.470715578E-09 0.124503463E-09 0.297653464E-10 0.634662765E-11 0.118679806E-11 0.190432685E-12 0.254584816E-13 0.283354078E-14 0.498614821E-13 0.120130104E-10 0.154970758E-08 0.218318008E-08 0.223842854E-10 0.119237343E-12 0.100135589E-14 0.609687327E-14 0.467995529E-13 0.299527330E-12 0.164610361E-11 0.793923521E-11 0.341747845E-10 0.133059466E-09 0.473723782E-09 0.155618840E-08 0.475282347E-08 0.135830431E-07 0.365263091E-07 0.928667703E-07 0.224168176E-06 0.515622503E-06 0.113377337E-05 0.238991311E-05 0.484150132E-05 0.944656040E-05 0.177871007E-04 0.323755703E-04 0.570511875E-04 0.974590876E-04 0.157247530E-03 0.240232068E-03 0.348313479E-03 0.480310176E-03 0.631108764E-03 0.791436119E-03 0.948445057E-03 0.108712120E-02 0.119232351E-02 0.125111535E-02 0.125494879E-02 0.120130938E-02 0.109446538E-02 0.945151667E-03 0.769152306E-03 0.584973546E-03 0.410926325E-03 0.262127956E-03 0.148038671E-03 0.711359171E-04 0.271909394E-04 0.726617418E-05 0.988703846E-06 0.436406163E-11
0.885455574E-05 0.368360161E-04 0.103813931E-03 0.231029786E-03 0.435099384E-03 0.722660916E-03 0.108721957E-02 0.150879042E-02 0.195616321E-02 0.239111320E-02 0.277367560E-02 0.306757912E-02 0.324504939E-02 0.329034682E-02 0.320160482E-02 0.299074757E-02 0.268150796E-02 0.230583921E-02 0.189927802E-02 0.149603433E-02 0.112466153E-02 0.805073709E-03 0.547369011E-03 0.352501171E-03 0.214388841E-03 0.125954335E-03 0.713775808E-04 0.389523084E-04 0.204323005E-04 0.102800504E-04 0.494907226E-05 0.227361329E-05 0.993624212E-06 0.411619965E-06 0.160978871E-06 0.591562070E-07 0.203155128E-07 0.647877751E-08 0.190435312E-08 0.511352405E-09 0.124089003E-09 0.268552073E-10 0.509744070E-11 0.830387571E-12 0.112734339E-12 0.123704969E-13 0.612451306E-13 0.144488249E-10 0.185413296E-08 0.260934407E-08 0.268223933E-10 0.143839788E-12 0.335000535E-14 0.274631036E-13 0.207648650E-12 0.130948030E-11 0.709269015E-11 0.337203841E-10 0.143087348E-09 0.549158774E-09 0.192691951E-08 0.623693763E-08 0.187617104E-07 0.527869375E-07 0.139668515E-06 0.349163940E-06 0.828115674E-06 0.186994362E-05 0.403268177E-05 0.832861951E-05 0.165123092E-04 0.314929930E-04 0.578890576E-04 0.102721773E-03 0.176210538E-03 0.292582088E-03 0.459396775E-03 0.683872728E-03 0.967517728E-03 0.130377302E-02 0.167673838E-02 0.206151977E-02 0.242639170E-02 0.273654726E-02 0.295884348E-02 0.306673883E-02 0.304454425E-02 0.289031537E-02 0.261680759E-02 0.225030980E-02 0.182735582E-02 0.138972292E-02 0.978301396E-03 0.626789464E-03 0.356416131E-03 0.172939413E-03 0.669943765E-04 0.182376043E-04 0.254775068E-05 0.110176989E-10
0.204692151E-04 0.831587313E-04 0.230385602E-03 0.506012409E-03 0.943248044E-03 0.155436504E-02 0.232515601E-02 0.321490876E-02 0.416120933E-02 0.508809695E-02 0.591591047E-02 0.657126168E-02 0.699590659E-02 0.715352921E-02 0.703376252E-02 0.665303459E-02 0.605207868E-02 0.529035833E-02 0.443805894E-02 0.356679922E-02 0.274054310E-02 0.200830493E-02 0.139993883E-02 0.925620727E-03 0.578735897E-03 0.349068840E-03 0.202819327E-03 0.113339425E-03 0.608051269E-04 0.312532720E-04 0.153544170E-04 0.719116133E-05 0.320091681E-05 0.134942911E-05 0.536650703E-06 0.200399725E-06 0.698942770E-07 0.226259242E-07 0.674812073E-08 0.183798377E-08 0.452321014E-09 0.992620569E-10 0.191047369E-10 0.315603208E-11 0.434580648E-12 0.479986907E-13 0.760333501E-13 0.171270723E-10 0.218520535E-08 0.307206038E-08 0.316768521E-10 0.171546832E-12 0.120766409E-13 0.107597728E-12 0.802336658E-12 0.499130902E-11 0.266742461E-10 0.125133209E-09 0.523925181E-09 0.198381023E-08 0.686599666E-08 0.219134755E-07 0.649730580E-07 0.180090083E-06 0.469144396E-06 0.115394732E-05 0.269068369E-05 0.596821701E-05 0.126313062E-04 0.255755149E-04 0.496570610E-04 0.926406137E-04 0.166364131E-03 0.288027484E-03 0.481413503E-03 0.777737470E-03 0.118958135E-02 0.172730070E-02 0.238697953E-02 0.314662163E-02 0.396515615E-02 0.478492770E-02 0.553756440E-02 0.615232624E-02 0.656553963E-02 0.672959490E-02 0.662005553E-02 0.623994833E-02 0.562048471E-02 0.481812237E-02 0.390801253E-02 0.297455024E-02 0.209988863E-02 0.135198375E-02 0.774265209E-03 0.379311183E-03 0.148821986E-03 0.412131958E-04 0.589682259E-05 0.249113855E-10
0.432279339E-04 0.171714637E-03 0.468035723E-03 0.101490237E-02 0.187245780E-02 0.306036812E-02 0.454933150E-02 0.626259437E-02 0.808552373E-02 0.988027081E-02 0.115025993E-01 0.128184501E-01 0.137185548E-01 0.141298566E-01 0.140229287E-01 0.134147732E-01 0.123666069E-01 0.109765567E-01 0.936777703E-02 0.767324725E-02 0.601934688E-02 0.451092515E-02 0.322056003E-02 0.218401430E-02 0.140238611E-02 0.867621391E-03 0.516455329E-03 0.295319798E-03 0.161934804E-03 0.849776625E-04 0.425791113E-04 0.203183154E-04 0.920637285E-05 0.394748486E-05 0.159544243E-05 0.605065111E-06 0.214187153E-06 0.703351191E-07 0.212699796E-07 0.587200732E-08 0.146431212E-08 0.325561827E-09 0.634770153E-10 0.106229539E-10 0.148199942E-11 0.165480964E-12 0.991279541E-13 0.200753806E-10 0.254540033E-08 0.357467989E-08 0.369940328E-10 0.203847654E-12 0.411288706E-13 0.372612531E-12 0.274333681E-11 0.168533590E-10 0.889519847E-10 0.412124002E-09 0.170402548E-08 0.637056585E-08 0.217637055E-07 0.685383839E-07 0.200425760E-06 0.547614889E-06 0.140536429E-05 0.340300062E-05 0.780539722E-05 0.170162184E-04 0.353631076E-04 0.702388497E-04 0.133635884E-03 0.244030205E-03 0.428438478E-03 0.724293466E-03 0.118058850E-02 0.185758539E-02 0.277057174E-02 0.392801454E-02 0.530764228E-02 0.685189338E-02 0.846934877E-02 0.100424783E-01 0.114406003E-01 0.125358030E-01 0.132192420E-01 0.134153953E-01 0.130923139E-01 0.122669647E-01 0.110048959E-01 0.941433292E-02 0.763478922E-02 0.582114514E-02 0.412418228E-02 0.266981241E-02 0.154032442E-02 0.761843345E-03 0.302571367E-03 0.851318327E-04 0.124480976E-04 0.512358732E-10
0.844460301E-04 0.328342663E-03 0.881120737E-03 0.188682985E-02 0.344508886E-02 0.558259897E-02 0.824207161E-02 0.112879686E-01 0.145245120E-01 0.177204236E-01 0.206355751E-01 0.230461508E-01 0.247663148E-01 0.256652478E-01 0.256788973E-01 0.248158760E-01 0.231568422E-01 0.208467040E-01 0.180795342E-01 0.150769893E-01 0.120624518E-01 0.923470687E-02 0.674576731E-02 0.468723988E-02 0.308786659E-02 0.195782445E-02 0.119301537E-02 0.697580923E-03 0.390713569E-03 0.209208985E-03 0.106853404E-03 0.519249443E-04 0.239374549E-04 0.104337887E-04 0.428345766E-05 0.164890992E-05 0.592094409E-06 0.197118140E-06 0.604040906E-07 0.168909366E-07 0.426508473E-08 0.959953561E-09 0.189447819E-09 0.320883112E-10 0.453094983E-11 0.511734047E-12 0.143376942E-12 0.233252705E-10 0.293745139E-08 0.412090007E-08 0.428260864E-10 0.244261046E-12 0.127875737E-12 0.115594828E-11 0.841160475E-11 0.510801575E-10 0.266499378E-09 0.122043264E-08 0.498700814E-08 0.184211046E-07 0.621589606E-07 0.193268789E-06 0.557735007E-06 0.150297535E-05 0.380181314E-05 0.906734567E-05 0.204686894E-04 0.438799252E-04 0.895909398E-04 0.174654037E-03 0.325810048E-03 0.582715438E-03 0.100088969E-02 0.165347231E-02 0.263061374E-02 0.403528055E-02 0.587472180E-02 0.814066082E-02 0.107667074E-01 0.136258015E-01 0.165384151E-01 0.192904305E-01 0.216574483E-01 0.234313011E-01 0.244446844E-01 0.245908257E-01 0.238362234E-01 0.222260691E-01 0.198817942E-01 0.169911832E-01 0.137909055E-01 0.105423722E-01 0.750156771E-02 0.488556689E-02 0.284058764E-02 0.141845748E-02 0.570001837E-03 0.162762241E-03 0.242722272E-04 0.971036307E-10
0.154195703E-03 0.587396324E-03 0.155289914E-02 0.328454329E-02 0.593417464E-02 0.953016616E-02 0.139660649E-01 0.190155990E-01 0.243647248E-01 0.296510477E-01 0.345033258E-01 0.385766253E-01 0.415814072E-01 0.433060117E-01 0.436328165E-01 0.425479226E-01 0.401436612E-01 0.366126038E-01 0.322316289E-01 0.273355283E-01 0.222814288E-01 0.174082741E-01 0.129977604E-01 0.924451649E-02 0.624203077E-02 0.405249838E-02 0.252604228E-02 0.150935107E-02 0.862999994E-03 0.471250067E-03 0.245217932E-03 0.121289384E-03 0.568613978E-04 0.251829697E-04 0.104964411E-04 0.409931636E-05 0.149239952E-05 0.503434308E-06 0.156235018E-06 0.442249544E-07 0.113000915E-07 0.257287236E-08 0.513545984E-09 0.879633588E-10 0.125599878E-10 0.143411671E-11 0.239315322E-12 0.269131887E-10 0.336438077E-08 0.471480410E-08 0.492318616E-10 0.300856589E-12 0.362111030E-12 0.324911257E-11 0.233902116E-10 0.140524176E-09 0.725299876E-09 0.328549521E-08 0.132770337E-07 0.484869247E-07 0.161696789E-06 0.496656639E-06 0.141512760E-05 0.376303433E-05 0.938666471E-05 0.220608272E-04 0.490356470E-04 0.103419246E-03 0.207549732E-03 0.397325610E-03 0.727126841E-03 0.127447816E-02 0.214305590E-02 0.346219190E-02 0.538090337E-02 0.805494376E-02 0.114576621E-01 0.155335227E-01 0.201293323E-01 0.249994807E-01 0.298277084E-01 0.342611521E-01 0.379501544E-01 0.405870266E-01 0.419386290E-01 0.418699533E-01 0.403574258E-01 0.374929830E-01 0.334787071E-01 0.286127813E-01 0.232658312E-01 0.178477913E-01 0.127647920E-01 0.836866163E-02 0.490539800E-02 0.247325562E-02 0.100525061E-02 0.291034754E-03 0.441819138E-04 0.171439460E-09