<?xml version="1.0"?>
<VTKFile type="StructuredGrid">
<StructuredGrid WholeExtent="     0   100     0   100     0     0">
<Piece Extent="     0   100     0   100     0     0">
<Points>
<DataArray type="Float32" NumberOfComponents="3"/>
0.000000000E+00 0.000000000E+00 0.000000000E+00 0.199999996E-01 0.000000000E+00 0.000000000E+00 0.399999991E-01 0.000000000E+00 0.000000000E+00 0.599999987E-01 0.000000000E+00 0.000000000E+00 0.799999982E-01 0.000000000E+00 0.000000000E+00 0.100000001E+00 0.000000000E+00 0.000000000E+00 0.119999997E+00 0.000000000E+00 0.000000000E+00 0.140000001E+00 0.000000000E+00 0.000000000E+00 0.159999996E+00 0.000000000E+00 0.000000000E+00 0.180000007E+00 0.000000000E+00 0.000000000E+00 0.200000003E+00 0.000000000E+00 0.000000000E+00 0.219999999E+00 0.000000000E+00 0.000000000E+00 0.239999995E+00 0.000000000E+00 0.000000000E+00 0.259999990E+00 0.000000000E+00 0.000000000E+00 0.280000001E+00 0.000000000E+00 0.000000000E+00 0.300000012E+00 0.000000000E+00 0.000000000E+00 0.319999993E+00 0.000000000E+00 0.000000000E+00 0.340000004E+00 0.000000000E+00 0.000000000E+00 0.360000014E+00 0.000000000E+00 0.000000000E+00 0.379999995E+00 0.000000000E+00 0.000000000E+00 0.400000006E+00 0.000000000E+00 0.000000000E+00 0.419999987E+00 0.000000000E+00 0.000000000E+00 0.439999998E+00 0.000000000E+00 0.000000000E+00 0.460000008E+00 0.000000000E+00 0.000000000E+00 0.479999989E+00 0.000000000E+00 0.000000000E+00 0.500000000E+00 0.000000000E+00 0.000000000E+00 0.519999981E+00 0.000000000E+00 0.000000000E+00 0.540000021E+00 0.000000000E+00 0.000000000E+00 0.560000002E+00 0.000000000E+00 0.000000000E+00 0.579999983E+00 0.000000000E+00 0.000000000E+00 0.600000024E+00 0.000000000E+00 0.000000000E+00 0.620000005E+00 0.000000000E+00 0.000000000E+00 0.639999986E+00 0.000000000E+00 0.000000000E+00 0.660000026E+00 0.000000000E+00 0.000000000E+00 0.680000007E+00 0.000000000E+00 0.000000000E+00 0.699999988E+00 0.000000000E+00 0.000000000E+00 0.720000029E+00 0.000000000E+00 0.000000000E+00 0.740000010E+00 0.000000000E+00 0.000000000E+00 0.759999990E+00 0.000000000E+00 0.000000000E+00 0.779999971E+00 0.000000000E+00 0.000000000E+00 0.800000012E+00 0.000000000E+00 0.000000000E+00 0.819999993E+00 0.000000000E+00 0.000000000E+00 0.839999974E+00 0.000000000E+00 0.000000000E+00 0.860000014E+00 0.000000000E+00 0.000000000E+00 0.879999995E+00 0.000000000E+00 0.000000000E+00 0.899999976E+00 0.000000000E+00 0.000000000E+00 0.920000017E+00 0.000000000E+00 0.000000000E+00 0.939999998E+00 0.000000000E+00 0.000000000E+00 0.959999979E+00 0.000000000E+00 0.000000000E+00 0.980000019E+00 0.000000000E+00 0.000000000E+00 0.100000000E+01 0.000000000E+00 0.000000000E+00 0.101999998E+01 0.000000000E+00 0.000000000E+00 0.103999996E+01 0.000000000E+00 0.000000000E+00 0.105999994E+01 0.000000000E+00 0.000000000E+00 0.108000004E+01 0.000000000E+00 0.000000000E+00 0.110000002E+01 0.000000000E+00 0.000000000E+00 0.112000000E+01 0.000000000E+00 0.000000000E+00 0.113999999E+01 0.000000000E+00 0.000000000E+00 0.115999997E+01 0.000000000E+00 0.000000000E+00 0.117999995E+01 0.000000000E+00 0.000000000E+00 0.120000005E+01 0.000000000E+00 0.000000000E+00 0.122000003E+01 0.000000000E+00 0.000000000E+00 0.124000001E+01 0.000000000E+00 0.000000000E+00 0.125999999E+01 0.000000000E+00 0.000000000E+00 0.127999997E+01 0.000000000E+00 0.000000000E+00 0.129999995E+01 0.000000000E+00 0.000000000E+00 0.132000005E+01 0.000000000E+00 0.000000000E+00 0.134000003E+01 0.000000000E+00 0.000000000E+00 0.136000001E+01 0.000000000E+00 0.000000000E+00 0.138000000E+01 0.000000000E+00 0.000000000E+00 0.139999998E+01 0.000000000E+00 0.000000000E+00 0.141999996E+01 0.000000000E+00 0.000000000E+00 0.144000006E+01 0.000000000E+00 0.000000000E+00 0.146000004E+01 0.000000000E+00 0.000000000E+00 0.148000002E+01 0.000000000E+00 0.000000000E+00 0.150000000E+01 0.000000000E+00 0.000000000E+00 0.151999998E+01 0.000000000E+00 0.000000000E+00 0.153999996E+01 0.000000000E+00 0.000000000E+00 0.155999994E+01 0.000000000E+00 0.000000000E+00 0.158000004E+01 0.000000000E+00 0.000000000E+00 0.160000002E+01 0.000000000E+00 0.000000000E+00 0.162000000E+01 0.000000000E+00 0.000000000E+00 0.163999999E+01 0.000000000E+00 0.000000000E+00 0.165999997E+01 0.000000000E+00 0.000000000E+00 0.167999995E+01 0.000000000E+00 0.000000000E+00 0.170000005E+01 0.000000000E+00 0.000000000E+00 0.172000003E+01 0.000000000E+00 0.000000000E+00 0.174000001E+01 0.000000000E+00 0.000000000E+00 0.175999999E+01 0.000000000E+00 0.000000000E+00 0.177999997E+01 0.000000000E+00 0.000000000E+00 0.179999995E+01 0.000000000E+00 0.000000000E+00 0.182000005E+01 0.000000000E+00 0.000000000E+00 0.184000003E+01 0.000000000E+00 0.000000000E+00 0.186000001E+01 0.000000000E+00 0.000000000E+00 0.188000000E+01 0.000000000E+00 0.000000000E+00 0.189999998E+01 0.000000000E+00 0.000000000E+00 0.191999996E+01 0.000000000E+00 0.000000000E+00 0.194000006E+01 0.000000000E+00 0.000000000E+00 0.196000004E+01 0.000000000E+00 0.000000000E+00 0.198000002E+01 0.000000000E+00 0.000000000E+00 0.200000000E+01 0.000000000E+00 0.000000000E+00
0.000000000E+00 0.999999978E-02 0.000000000E+00 0.199999996E-01 0.999999978E-02 0.000000000E+00 0.399999991E-01 0.999999978E-02 0.000000000E+00 0.599999987E-01 0.999999978E-02 0.000000000E+00 0.799999982E-01 0.999999978E-02 0.000000000E+00 0.100000001E+00 0.999999978E-02 0.000000000E+00 0.119999997E+00 0.999999978E-02 0.000000000E+00 0.140000001E+00 0.999999978E-02 0.000000000E+00 0.159999996E+00 0.999999978E-02 0.000000000E+00 0.180000007E+00 0.999999978E-02 0.000000000E+00 0.200000003E+00 0.999999978E-02 0.000000000E+00 0.219999999E+00 0.999999978E-02 0.000000000E+00 0.239999995E+00 0.999999978E-02 0.000000000E+00 0.259999990E+00 0.999999978E-02 0.000000000E+00 0.280000001E+00 0.999999978E-02 0.000000000E+00 0.300000012E+00 0.999999978E-02 0.000000000E+00 0.319999993E+00 0.999999978E-02 0.000000000E+00 0.340000004E+00 0.999999978E-02 0.000000000E+00 0.360000014E+00 0.999999978E-02 0.000000000E+00 0.379999995E+00 0.999999978E-02 0.000000000E+00 0.400000006E+00 0.999999978E-02 0.000000000E+00 0.419999987E+00 0.999999978E-02 0.000000000E+00 0.439999998E+00 0.999999978E-02 0.000000000E+00 0.460000008E+00 0.999999978E-02 0.000000000E+00 0.479999989E+00 0.999999978E-02 0.000000000E+00 0.500000000E+00 0.999999978E-02 0.000000000E+00 0.519999981E+00 0.999999978E-02 0.000000000E+00 0.540000021E+00 0.999999978E-02 0.000000000E+00 0.560000002E+00 0.999999978E-02 0.000000000E+00 0.579999983E+00 0.999999978E-02 0.000000000E+00 0.600000024E+00 0.999999978E-02 0.000000000E+00 0.620000005E+00 0.999999978E-02 0.000000000E+00 0.639999986E+00 0.999999978E-02 0.000000000E+00 0.660000026E+00 0.999999978E-02 0.000000000E+00 0.680000007E+00 0.999999978E-02 0.000000000E+00 0.699999988E+00 0.999999978E-02 0.000000000E+00 0.720000029E+00 0.999999978E-02 0.000000000E+00 0.740000010E+00 0.999999978E-02 0.000000000E+00 0.759999990E+00 0.999999978E-02 0.000000000E+00 0.779999971E+00 0.999999978E-02 0.000000000E+00 0.800000012E+00 0.999999978E-02 0.000000000E+00 0.819999993E+00 0.999999978E-02 0.000000000E+00 0.839999974E+00 0.999999978E-02 0.000000000E+00 0.860000014E+00 0.999999978E-02 0.000000000E+00 0.879999995E+00 0.999999978E-02 0.000000000E+00 0.899999976E+00 0.999999978E-02 0.000000000E+00 0.920000017E+00 0.999999978E-02 0.000000000E+00 0.939999998E+00 0.999999978E-02 0.000000000E+00 0.959999979E+00 0.999999978E-02 0.000000000E+00 0.980000019E+00 0.999999978E-02 0.000000000E+00 0.100000000E+01 0.999999978E-02 0.000000000E+00 0.101999998E+01 0.999999978E-02 0.000000000E+00 0.103999996E+01 0.999999978E-02 0.000000000E+00 0.105999994E+01 0.999999978E-02 0.000000000E+00 0.108000004E+01 0.999999978E-02 0.000000000E+00 0.110000002E+01 0.999999978E-02 0.000000000E+00 0.112000000E+01 0.999999978E-02 0.000000000E+00 0.113999999E+01 0.999999978E-02 0.000000000E+00 0.115999997E+01 0.999999978E-02 0.000000000E+00 0.117999995E+01 0.999999978E-02 0.000000000E+00 0.120000005E+01 0.999999978E-02 0.000000000E+00 0.122000003E+01 0.999999978E-02 0.000000000E+00 0.124000001E+01 0.999999978E-02 0.000000000E+00 0.125999999E+01 0.999999978E-02 0.000000000E+00 0.127999997E+01 0.999999978E-02 0.000000000E+00 0.129999995E+01 0.999999978E-02 0.000000000E+00 0.132000005E+01 0.999999978E-02 0.000000000E+00 0.134000003E+01 0.999999978E-02 0.000000000E+00 0.136000001E+01 0.999999978E-02 0.000000000E+00 0.138000000E+01 0.999999978E-02 0.000000000E+00 0.139999998E+01 0.999999978E-02 0.000000000E+00 0.141999996E+01 0.999999978E-02 0.000000000E+00 0.144000006E+01 0.999999978E-02 0.000000000E+00 0.146000004E+01 0.999999978E-02 0.000000000E+00 0.148000002E+01 0.999999978E-02 0.000000000E+00 0.150000000E+01 0.999999978E-02 0.000000000E+00 0.151999998E+01 0.999999978E-02 0.000000000E+00 0.153999996E+01 0.999999978E-02 0.000000000E+00 0.155999994E+01 0.999999978E-02 0.000000000E+00 0.158000004E+01 0.999999978E-02 0.000000000E+00 0.160000002E+01 0.999999978E-02 0.000000000E+00 0.162000000E+01 0.999999978E-02 0.000000000E+00 0.163999999E+01 0.999999978E-02 0.000000000E+00 0.165999997E+01 0.999999978E-02 0.000000000E+00 0.167999995E+01 0.999999978E-02 0.000000000E+00 0.170000005E+01 0.999999978E-02 0.000000000E+00 0.172000003E+01 0.999999978E-02 0.000000000E+00 0.174000001E+01 0.999999978E-02 0.000000000E+00 0.175999999E+01 0.999999978E-02 0.000000000E+00 0.177999997E+01 0.999999978E-02 0.000000000E+00 0.179999995E+01 0.999999978E-02 0.000000000E+00 0.182000005E+01 0.999999978E-02 0.000000000E+00 0.184000003E+01 0.999999978E-02 0.000000000E+00 0.186000001E+01 0.999999978E-02 0.000000000E+00 0.188000000E+01 0.999999978E-02 0.000000000E+00 0.189999998E+01 0.999999978E-02 0.000000000E+00 0.191999996E+01 0.999999978E-02 0.000000000E+00 0.194000006E+01 0.999999978E-02 0.000000000E+00 0.196000004E+01 0.999999978E-02 0.000000000E+00 0.198000002E+01 0.999999978E-02 0.000000000E+00 0.200000000E+01 0.999999978E-02 0.000000000E+00
[...]
<CellData Scalars="Temperature, U, V">
<DataArray type="Float32" Name="Temp, K"/>
0.116143294E-02 0.240457407E-02 0.371452235E-02 0.506784720E-02 0.643517775E-02 0.778355729E-02 0.907852314E-02 0.102859112E-01 0.113733914E-01 0.123117473E-01 0.130759515E-01 0.136459963E-01 0.140075646E-01 0.141525064E-01 0.140791414E-01 0.137923937E-01 0.133037418E-01 0.126309581E-01 0.117976461E-01 0.108325258E-01 0.976846181E-02 0.864123367E-02 0.748803606E-02 0.634575821E-02 0.524912588E-02 0.429588789E-02 0.347499829E-02 0.277526630E-02 0.218547159E-02 0.169447472E-02 0.129132345E-02 0.965357875E-03 0.706313935E-03 0.504424796E-03 0.350517977E-03 0.236108739E-03 0.153482863E-03 0.957675802E-04 0.569841250E-04 0.320767031E-04 0.169124778E-04 0.824814742E-05 0.366116819E-05 0.144782916E-05 0.495357881E-06 0.140542184E-06 0.309345722E-07 0.468318140E-08 0.366834868E-09 0.162618113E-09 0.211522133E-08 0.144239563E-07 0.676083545E-07 0.245672254E-06 0.739707161E-06 0.192535936E-05 0.446101649E-05 0.939948040E-05 0.183039429E-04 0.333592579E-04 0.574713704E-04 0.943502237E-04 0.148574007E-03 0.225634401E-03 0.331964577E-03 0.474950793E-03 0.662932114E-03 0.905186578E-03 0.121191097E-02 0.159418967E-02 0.206396077E-02 0.263397116E-02 0.331772817E-02 0.412944518E-02 0.508397305E-02 0.619672379E-02 0.737539865E-02 0.858711172E-02 0.979522429E-02 0.109611033E-01 0.120458789E-01 0.130120860E-01 0.138251688E-01 0.144547736E-01 0.148758432E-01 0.150695266E-01 0.150238276E-01 0.147341648E-01 0.142036676E-01 0.134433759E-01 0.124721369E-01 0.113164820E-01 0.100102210E-01 0.859373994E-02 0.711312145E-02 0.561899785E-02 0.416501239E-02 0.280585256E-02 0.159494614E-02 0.310220365E-07
0.310044037E-02 0.633255113E-02 0.967750046E-02 0.130927414E-01 0.165200941E-01 0.198923163E-01 0.231383014E-01 0.261871256E-01 0.289711505E-01 0.314283744E-01 0.335042514E-01 0.351529829E-01 0.363386087E-01 0.370357782E-01 0.372304544E-01 0.369204283E-01 0.361157656E-01 0.348391123E-01 0.331257842E-01 0.310236290E-01 0.285924654E-01 0.259030070E-01 0.230351370E-01 0.200753529E-01 0.171133727E-01 0.144151319E-01 0.119857853E-01 0.982604828E-02 0.793213211E-02 0.629585795E-02 0.490495749E-02 0.374351186E-02 0.279253162E-02 0.203066203E-02 0.143496308E-02 0.981751480E-03 0.647447538E-03 0.409398664E-03 0.246621639E-03 0.140419652E-03 0.748291641E-04 0.368614092E-04 0.165190340E-04 0.659341777E-05 0.227672604E-05 0.652030451E-06 0.144929089E-06 0.221717578E-07 0.175038894E-08 0.779412979E-09 0.101369295E-07 0.683999062E-07 0.317515202E-06 0.114332306E-05 0.341245050E-05 0.880550033E-05 0.202236497E-04 0.422256126E-04 0.814423838E-04 0.146918494E-03 0.250338693E-03 0.406112697E-03 0.631306320E-03 0.945419422E-03 0.137002335E-02 0.192827289E-02 0.264432677E-02 0.354268402E-02 0.464749383E-02 0.598183135E-02 0.756700430E-02 0.942189712E-02 0.115623716E-01 0.140007995E-01 0.167456567E-01 0.198013317E-01 0.229090247E-01 0.259784088E-01 0.289184414E-01 0.316410996E-01 0.340645052E-01 0.361152962E-01 0.377305187E-01 0.388588719E-01 0.394616723E-01 0.395135507E-01 0.390027389E-01 0.379315726E-01 0.363166369E-01 0.341890678E-01 0.315944590E-01 0.285930671E-01 0.252596401E-01 0.216828398E-01 0.179643966E-01 0.142177977E-01 0.105660902E-01 0.713856518E-02 0.406634761E-02 0.719333570E-07
0.707865227E-02 0.142763946E-01 0.215966869E-01 0.289809350E-01 0.363319404E-01 0.435312614E-01 0.504517332E-01 0.569662675E-01 0.629538596E-01 0.683035776E-01 0.729170963E-01 0.767102689E-01 0.796141997E-01 0.815760046E-01 0.825593919E-01 0.825455487E-01 0.815340206E-01 0.795437619E-01 0.766144842E-01 0.728079006E-01 0.682088509E-01 0.629259944E-01 0.570916496E-01 0.508602820E-01 0.444051437E-01 0.382562652E-01 0.324899890E-01 0.271696504E-01 0.223435089E-01 0.180434566E-01 0.142844822E-01 0.110649392E-01 0.836761389E-02 0.616151141E-02 0.440423144E-02 0.304487022E-02 0.202719378E-02 0.129293941E-02 0.784978794E-03 0.450138090E-03 0.241448433E-03 0.119663382E-03 0.539353496E-04 0.216488206E-04 0.751770040E-05 0.216569515E-05 0.484441387E-06 0.746355724E-07 0.593090910E-08 0.265962830E-08 0.344636639E-07 0.230873695E-06 0.106491166E-05 0.381251562E-05 0.113179676E-04 0.290529842E-04 0.663778992E-04 0.137843104E-03 0.264335657E-03 0.473881344E-03 0.801951508E-03 0.129117898E-02 0.199045124E-02 0.295340503E-02 0.423639780E-02 0.589605933E-02 0.798658468E-02 0.105568785E-01 0.136477686E-01 0.172893703E-01 0.214988329E-01 0.262785293E-01 0.316148363E-01 0.374775678E-01 0.438201874E-01 0.505807437E-01 0.572294220E-01 0.635826588E-01 0.694687739E-01 0.747327358E-01 0.792391971E-01 0.828740895E-01 0.855453014E-01 0.871827379E-01 0.877380893E-01 0.871847719E-01 0.855174810E-01 0.827527419E-01 0.789292231E-01 0.741088465E-01 0.683773980E-01 0.618463382E-01 0.546541475E-01 0.469671153E-01 0.389799885E-01 0.309158638E-01 0.230241772E-01 0.155763775E-01 0.885877665E-02 0.143300340E-06
0.132780364E-01 0.264224149E-01 0.395390131E-01 0.525909886E-01 0.654574782E-01 0.779737309E-01 0.899579376E-01 0.101228178E+00 0.111612782E+00 0.120955929E+00 0.129120559E+00 0.135989085E+00 0.141463533E+00 0.145464987E+00 0.147933289E+00 0.148827344E+00 0.148125723E+00 0.145828262E+00 0.141958505E+00 0.136566997E+00 0.129735067E+00 0.121579289E+00 0.112255521E+00 0.101962246E+00 0.909415781E-01 0.799958110E-01 0.693240911E-01 0.591143258E-01 0.495348200E-01 0.407269150E-01 0.327989757E-01 0.258222353E-01 0.198289119E-01 0.148126436E-01 0.107314056E-01 0.751262251E-02 0.506007904E-02 0.326208677E-02 0.200016634E-02 0.115746050E-02 0.626082474E-03 0.312716205E-03 0.141980549E-03 0.573849320E-04 0.200615905E-04 0.581805625E-05 0.131035517E-05 0.203337635E-06 0.162746492E-07 0.735725880E-08 0.947628251E-07 0.630271131E-06 0.288776323E-05 0.102726453E-04 0.303043344E-04 0.772962303E-04 0.175435955E-03 0.361778249E-03 0.688583648E-03 0.122447463E-02 0.205401797E-02 0.327554322E-02 0.499721570E-02 0.733158598E-02 0.103889965E-01 0.142703420E-01 0.190597661E-01 0.248178076E-01 0.315756202E-01 0.393305756E-01 0.480438173E-01 0.576396845E-01 0.680073127E-01 0.790041611E-01 0.904612914E-01 0.102190115E+00 0.113365486E+00 0.123714961E+00 0.133001819E+00 0.141026556E+00 0.147626027E+00 0.152671337E+00 0.156064957E+00 0.157738075E+00 0.157648101E+00 0.155777708E+00 0.152133435E+00 0.146747097E+00 0.139676854E+00 0.131010532E+00 0.120868534E+00 0.109409131E+00 0.968337208E-01 0.833917484E-01 0.693858266E-01 0.551762432E-01 0.411824696E-01 0.278805587E-01 0.157951694E-01 0.232782455E-06
0.218221899E-01 0.428121127E-01 0.633330047E-01 0.834486485E-01 0.103054971E+00 0.121964388E+00 0.139958054E+00 0.156816438E+00 0.172335818E+00 0.186335847E+00 0.198661789E+00 0.209183365E+00 0.217792511E+00 0.224400431E+00 0.228935078E+00 0.231339619E+00 0.231571853E+00 0.229605168E+00 0.225431293E+00 0.219064683E+00 0.210548982E+00 0.199965373E+00 0.187442079E+00 0.173165232E+00 0.157388777E+00 0.141078338E+00 0.124568485E+00 0.108206563E+00 0.923363045E-01 0.772802979E-01 0.633228272E-01 0.506944843E-01 0.395600609E-01 0.300110597E-01 0.220635738E-01 0.156619698E-01 0.106881801E-01 0.697568338E-02 0.432672026E-02 0.253085420E-02 0.138275477E-02 0.697150419E-03 0.319308630E-03 0.130128072E-03 0.458528557E-04 0.133999556E-04 0.304091122E-05 0.475513076E-06 0.383525105E-07 0.174809269E-07 0.223565820E-06 0.147581932E-05 0.671282032E-05 0.237074983E-04 0.694256669E-04 0.175741545E-03 0.395703071E-03 0.809124089E-03 0.152615726E-02 0.268768636E-02 0.446181279E-02 0.703627942E-02 0.106072631E-01 0.153654749E-01 0.214808770E-01 0.290874746E-01 0.382697880E-01 0.490520895E-01 0.613918677E-01 0.751775354E-01 0.902312025E-01 0.106315732E+00 0.123145714E+00 0.140401289E+00 0.157743469E+00 0.174830034E+00 0.190633163E+00 0.204841524E+00 0.217205763E+00 0.227532014E+00 0.235674053E+00 0.241524786E+00 0.245009258E+00 0.246078432E+00 0.244705319E+00 0.240882948E+00 0.234623268E+00 0.225960076E+00 0.214952320E+00 0.201690882E+00 0.186305493E+00 0.168975964E+00 0.149944291E+00 0.129526943E+00 0.108129136E+00 0.862589628E-01 0.645383969E-01 0.437081903E-01 0.246244576E-01 0.330204131E-06
0.326672569E-01 0.631366819E-01 0.922814235E-01 0.120392092E+00 0.147447124E+00 0.173275992E+00 0.197653875E+00 0.220353454E+00 0.241169959E+00 0.259930640E+00 0.276495874E+00 0.290754497E+00 0.302618414E+00 0.312016040E+00 0.318886638E+00 0.323175937E+00 0.324833602E+00 0.323812366E+00 0.320069522E+00 0.313571513E+00 0.304300874E+00 0.292267084E+00 0.277520597E+00 0.260170370E+00 0.240404531E+00 0.219165325E+00 0.196873382E+00 0.174010172E+00 0.151098117E+00 0.128674462E+00 0.107261010E+00 0.873320401E-01 0.692836270E-01 0.534079410E-01 0.398755521E-01 0.287283529E-01 0.198841132E-01 0.131527279E-01 0.826216489E-02 0.489086239E-02 0.270227506E-02 0.137680629E-02 0.636849261E-03 0.261953421E-03 0.931178365E-04 0.274420927E-04 0.627848021E-05 0.989700197E-06 0.804623710E-07 0.369699293E-07 0.469260243E-06 0.307376558E-05 0.138733321E-04 0.486119825E-04 0.141203316E-03 0.354405696E-03 0.790839142E-03 0.160170277E-02 0.299048773E-02 0.520960474E-02 0.854899641E-02 0.133171761E-01 0.198164284E-01 0.283148866E-01 0.390187949E-01 0.520481430E-01 0.674187616E-01 0.850325674E-01 0.104677483E+00 0.126036301E+00 0.148704171E+00 0.172211632E+00 0.196051806E+00 0.219708249E+00 0.242681175E+00 0.264509946E+00 0.284143090E+00 0.301307797E+00 0.315809965E+00 0.327516973E+00 0.336341828E+00 0.342229038E+00 0.345143855E+00 0.345064223E+00 0.341975808E+00 0.335870773E+00 0.326747298E+00 0.314615279E+00 0.299502313E+00 0.281465352E+00 0.260602653E+00 0.237073332E+00 0.211118445E+00 0.183085188E+00 0.153455153E+00 0.122875378E+00 0.921872035E-01 0.624488629E-01 0.349466689E-01 0.426660506E-06
0.456733294E-01 0.869002640E-01 0.125434816E+00 0.161970079E+00 0.196654394E+00 0.229386061E+00 0.259974301E+00 0.288221568E+00 0.313960105E+00 0.337063551E+00 0.357445300E+00 0.375049978E+00 0.389843643E+00 0.401803166E+00 0.410907209E+00 0.417128474E+00 0.420428813E+00 0.420756072E+00 0.418043554E+00 0.412213206E+00 0.403181255E+00 0.390869260E+00 0.375219047E+00 0.356214285E+00 0.333908677E+00 0.309025407E+00 0.281974345E+00 0.253285348E+00 0.223596036E+00 0.193626598E+00 0.164142236E+00 0.135905534E+00 0.109623119E+00 0.858927146E-01 0.651568472E-01 0.476705208E-01 0.334872641E-01 0.224669855E-01 0.143047245E-01 0.857662410E-02 0.479611941E-02 0.247144210E-02 0.115539611E-02 0.480015093E-03 0.172246044E-03 0.512159822E-04 0.118180851E-04 0.187839350E-05 0.153951248E-06 0.712838997E-07 0.897873917E-06 0.583498922E-05 0.261250243E-04 0.907839712E-04 0.261417852E-03 0.650142902E-03 0.143672398E-02 0.287989900E-02 0.531816436E-02 0.915697031E-02 0.148418536E-01 0.228198376E-01 0.334937833E-01 0.471758246E-01 0.640464202E-01 0.841244459E-01 0.107252918E+00 0.133101031E+00 0.161183417E+00 0.190891981E+00 0.221537888E+00 0.252396971E+00 0.282754332E+00 0.311943501E+00 0.339376152E+00 0.364562273E+00 0.386627465E+00 0.405413061E+00 0.420837283E+00 0.432868838E+00 0.441505164E+00 0.446755022E+00 0.448626339E+00 0.447117716E+00 0.442214221E+00 0.433887005E+00 0.422094375E+00 0.406790018E+00 0.387932152E+00 0.365500152E+00 0.339511871E+00 0.310052633E+00 0.277307957E+00 0.241602704E+00 0.203449622E+00 0.163605243E+00 0.123128682E+00 0.834362805E-01 0.463445187E-01 0.516187583E-06
0.606573969E-01 0.113537446E+00 0.161782771E+00 0.206711769E+00 0.248745799E+00 0.287909776E+00 0.324091017E+00 0.357162803E+00 0.387035221E+00 0.413668245E+00 0.437066674E+00 0.457266718E+00 0.474321276E+00 0.488285214E+00 0.499202967E+00 0.507098019E+00 0.511965990E+00 0.513768911E+00 0.512433290E+00 0.507850766E+00 0.499881506E+00 0.488363117E+00 0.473123431E+00 0.454001695E+00 0.430878401E+00 0.404112190E+00 0.373993069E+00 0.340981215E+00 0.305714875E+00 0.269001216E+00 0.231785238E+00 0.195097491E+00 0.159982756E+00 0.127417281E+00 0.982244909E-01 0.730015188E-01 0.520683378E-01 0.354489200E-01 0.228888635E-01 0.139074903E-01 0.787585787E-02 0.410692720E-02 0.194152643E-02 0.815103296E-03 0.295374397E-03 0.886430935E-04 0.206343211E-04 0.330724606E-05 0.273255608E-06 0.127461618E-06 0.159318984E-05 0.102717022E-04 0.456134294E-04 0.157150222E-03 0.448441890E-03 0.110460410E-02 0.241620373E-02 0.479089329E-02 0.874551758E-02 0.148751568E-01 0.238006487E-01 0.361010507E-01 0.522410534E-01 0.725047961E-01 0.969467014E-01 0.125366747E+00 0.157314152E+00 0.192117617E+00 0.228938118E+00 0.266834766E+00 0.304836363E+00 0.342007369E+00 0.377503425E+00 0.410610080E+00 0.440763384E+00 0.467554241E+00 0.490446985E+00 0.509447753E+00 0.524617910E+00 0.536043286E+00 0.543809950E+00 0.547987223E+00 0.548616350E+00 0.545702755E+00 0.539212763E+00 0.529074669E+00 0.515180707E+00 0.497397214E+00 0.475576252E+00 0.449576080E+00 0.419284105E+00 0.384654909E+00 0.345756143E+00 0.302825451E+00 0.256344646E+00 0.207130477E+00 0.156437173E+00 0.106063537E+00 0.584523641E-01 0.595662641E-06
0.774252042E-01 0.142482147E+00 0.200361967E+00 0.253272504E+00 0.302018493E+00 0.346809626E+00 0.387654811E+00 0.424539059E+00 0.457490474E+00 0.486593693E+00 0.511980295E+00 0.533809543E+00 0.552248776E+00 0.567455053E+00 0.579559624E+00 0.588655889E+00 0.594790220E+00 0.597955823E+00 0.598089039E+00 0.595068157E+00 0.588715017E+00 0.578800082E+00 0.565051615E+00 0.547172308E+00 0.524865270E+00 0.498057276E+00 0.466831863E+00 0.431465626E+00 0.392466038E+00 0.350591660E+00 0.306846112E+00 0.262439460E+00 0.218713686E+00 0.177038774E+00 0.138688982E+00 0.104717568E+00 0.758499876E-01 0.524156354E-01 0.343322270E-01 0.211475771E-01 0.121321417E-01 0.640422059E-02 0.306253531E-02 0.129964179E-02 0.475725072E-03 0.144119331E-03 0.338465507E-04 0.547052559E-05 0.455613730E-06 0.214019437E-06 0.265494941E-05 0.169825034E-04 0.747931481E-04 0.255442079E-03 0.722198631E-03 0.176143926E-02 0.381261413E-02 0.747548463E-02 0.134847192E-01 0.226492714E-01 0.357627124E-01 0.534984283E-01 0.763077587E-01 0.104339451E+00 0.137394786E+00 0.174925610E+00 0.216075748E+00 0.259756356E+00 0.304744542E+00 0.349786937E+00 0.393697023E+00 0.435431033E+00 0.474138916E+00 0.509186029E+00 0.540150821E+00 0.566801786E+00 0.589031279E+00 0.607027233E+00 0.620997548E+00 0.631138921E+00 0.637615979E+00 0.640545666E+00 0.639988422E+00 0.635941803E+00 0.628337324E+00 0.617042542E+00 0.601862311E+00 0.582550406E+00 0.558821797E+00 0.530375600E+00 0.496922433E+00 0.458230644E+00 0.414184898E+00 0.364863247E+00 0.310641408E+00 0.252328038E+00 0.191327646E+00 0.129825503E+00 0.709786341E-01 0.664025208E-06
0.957877561E-01 0.173202112E+00 0.240307003E+00 0.300495207E+00 0.355063468E+00 0.404458523E+00 0.448850632E+00 0.488374859E+00 0.523214519E+00 0.553613603E+00 0.579860926E+00 0.602264822E+00 0.621128917E+00 0.636729956E+00 0.649300694E+00 0.659016609E+00 0.665986419E+00 0.670245230E+00 0.671750784E+00 0.670381844E+00 0.665938139E+00 0.658143222E+00 0.646648884E+00 0.631046057E+00 0.610882699E+00 0.585661292E+00 0.555213988E+00 0.519553900E+00 0.478943288E+00 0.433952361E+00 0.385493457E+00 0.334816813E+00 0.283456177E+00 0.233122140E+00 0.185549989E+00 0.142321795E+00 0.104690261E+00 0.734381378E-01 0.488020256E-01 0.304789469E-01 0.177166313E-01 0.946885254E-02 0.458113989E-02 0.196540332E-02 0.726779399E-03 0.222273360E-03 0.526651711E-04 0.858301428E-05 0.720444689E-06 0.340679804E-06 0.419514708E-05 0.266266052E-04 0.116306073E-03 0.393757102E-03 0.110288034E-02 0.266314135E-02 0.570307113E-02 0.110555924E-01 0.197033044E-01 0.326746963E-01 0.509060919E-01 0.750944912E-01 0.105570257E+00 0.142215133E+00 0.184441656E+00 0.231236607E+00 0.281260639E+00 0.332982481E+00 0.384827286E+00 0.435312480E+00 0.483156234E+00 0.527344763E+00 0.567159355E+00 0.602165520E+00 0.632175744E+00 0.657196701E+00 0.677562654E+00 0.693632603E+00 0.705743968E+00 0.714187026E+00 0.719188392E+00 0.720899343E+00 0.719387591E+00 0.714632213E+00 0.706519723E+00 0.694845378E+00 0.679313302E+00 0.659546971E+00 0.635100961E+00 0.605485022E+00 0.570193529E+00 0.528757691E+00 0.480816126E+00 0.426211596E+00 0.365129113E+00 0.298283994E+00 0.227163911E+00 0.154321671E+00 0.837036818E-01 0.721470940E-06
0.115568511E+00 0.205213070E+00 0.280867696E+00 0.347424120E+00 0.406767994E+00 0.459624529E+00 0.506358683E+00 0.547289610E+00 0.582789302E+00 0.613290906E+00 0.639266133E+00 0.661192834E+00 0.679526567E+00 0.694675982E+00 0.706984520E+00 0.716716707E+00 0.724048555E+00 0.729062021E+00 0.731741488E+00 0.731972933E+00 0.729544401E+00 0.724147141E+00 0.715378463E+00 0.702746153E+00 0.685677767E+00 0.663311183E+00 0.635226369E+00 0.601139545E+00 0.560994685E+00 0.515059888E+00 0.464010715E+00 0.408977300E+00 0.351534367E+00 0.293618977E+00 0.237371698E+00 0.184917882E+00 0.138119519E+00 0.983447358E-01 0.663031638E-01 0.419861712E-01 0.247290265E-01 0.133822337E-01 0.655061798E-02 0.284122024E-02 0.106138119E-02 0.327683840E-03 0.783237338E-04 0.128689526E-04 0.108842562E-05 0.517938474E-06 0.633263244E-05 0.398892407E-04 0.172830230E-03 0.580053485E-03 0.160957733E-02 0.384792266E-02 0.815238059E-02 0.156240519E-01 0.275095962E-01 0.450402275E-01 0.692363605E-01 0.100718513E+00 0.139565870E+00 0.185253516E+00 0.236681595E+00 0.292288154E+00 0.350223780E+00 0.408549994E+00 0.465431362E+00 0.519286215E+00 0.568884909E+00 0.613386810E+00 0.652324200E+00 0.685549140E+00 0.713158488E+00 0.735413849E+00 0.753049254E+00 0.766567111E+00 0.776410162E+00 0.782943368E+00 0.786441922E+00 0.787082374E+00 0.784934521E+00 0.779954553E+00 0.771980286E+00 0.760730267E+00 0.745800614E+00 0.726674139E+00 0.702729821E+00 0.673265636E+00 0.637528062E+00 0.594767749E+00 0.544318855E+00 0.485714167E+00 0.418857694E+00 0.344273210E+00 0.263442576E+00 0.179242611E+00 0.964681655E-01 0.768851180E-06
0.136605740E+00 0.238082141E+00 0.321409076E+00 0.393294096E+00 0.456287295E+00 0.511419237E+00 0.559275031E+00 0.600387216E+00 0.635345042E+00 0.664796650E+00 0.689416885E+00 0.709868908E+00 0.726771832E+00 0.740674317E+00 0.752035737E+00 0.761212587E+00 0.768449962E+00 0.773876786E+00 0.777503610E+00 0.779224217E+00 0.778816462E+00 0.775945961E+00 0.770168185E+00 0.760930061E+00 0.747572184E+00 0.728949904E+00 0.704424202E+00 0.673425317E+00 0.635555029E+00 0.590711236E+00 0.539218187E+00 0.481934875E+00 0.420309305E+00 0.356349051E+00 0.292486072E+00 0.231340855E+00 0.175412863E+00 0.126752734E+00 0.866857469E-01 0.556525327E-01 0.332100838E-01 0.181956049E-01 0.901087187E-02 0.395092508E-02 0.149086060E-02 0.464582641E-03 0.112003116E-03 0.185489007E-04 0.158033299E-05 0.756497457E-06 0.918641945E-05 0.574412261E-04 0.246913231E-03 0.821627793E-03 0.225895783E-02 0.534694502E-02 0.112081869E-01 0.212376118E-01 0.369450487E-01 0.597239882E-01 0.905942768E-01 0.129978314E+00 0.177564636E+00 0.232291251E+00 0.292451859E+00 0.355899453E+00 0.420304328E+00 0.483411878E+00 0.543259978E+00 0.598321438E+00 0.647565782E+00 0.690445364E+00 0.726825595E+00 0.756886542E+00 0.781015217E+00 0.799709678E+00 0.814031422E+00 0.824595869E+00 0.831929803E+00 0.836460352E+00 0.838506043E+00 0.838267088E+00 0.835816026E+00 0.831088543E+00 0.823875308E+00 0.813817561E+00 0.800402105E+00 0.782966018E+00 0.760703564E+00 0.732685626E+00 0.697887182E+00 0.655242801E+00 0.603731155E+00 0.542504966E+00 0.471095890E+00 0.389727950E+00 0.299769521E+00 0.204352289E+00 0.109159805E+00 0.807290348E-06