<?xml version="1.0"?>
<VTKFile type="StructuredGrid">
<StructuredGrid WholeExtent="     0   100     0   100     0     0">
<Piece Extent="     0   100     0   100     0     0">
<Points>
<DataArray type="Float32" NumberOfComponents="3"/>
0.000000000E+00 0.000000000E+00 0.000000000E+00 0.199999996E-01 0.000000000E+00 0.000000000E+00 0.399999991E-01 0.000000000E+00 0.000000000E+00 0.599999987E-01 0.000000000E+00 0.000000000E+00 0.799999982E-01 0.000000000E+00 0.000000000E+00 0.100000001E+00 0.000000000E+00 0.000000000E+00 0.119999997E+00 0.000000000E+00 0.000000000E+00 0.140000001E+00 0.000000000E+00 0.000000000E+00 0.159999996E+00 0.000000000E+00 0.000000000E+00 0.180000007E+00 0.000000000E+00 0.000000000E+00 0.200000003E+00 0.000000000E+00 0.000000000E+00 0.219999999E+00 0.000000000E+00 0.000000000E+00 0.239999995E+00 0.000000000E+00 0.000000000E+00 0.259999990E+00 0.000000000E+00 0.000000000E+00 0.280000001E+00 0.000000000E+00 0.000000000E+00 0.300000012E+00 0.000000000E+00 0.000000000E+00 0.319999993E+00 0.000000000E+00 0.000000000E+00 0.340000004E+00 0.000000000E+00 0.000000000E+00 0.360000014E+00 0.000000000E+00 0.000000000E+00 0.379999995E+00 0.000000000E+00 0.000000000E+00 0.400000006E+00 0.000000000E+00 0.000000000E+00 0.419999987E+00 0.000000000E+00 0.000000000E+00 0.439999998E+00 0.000000000E+00 0.000000000E+00 0.460000008E+00 0.000000000E+00 0.000000000E+00 0.479999989E+00 0.000000000E+00 0.000000000E+00 0.500000000E+00 0.000000000E+00 0.000000000E+00 0.519999981E+00 0.000000000E+00 0.000000000E+00 0.540000021E+00 0.000000000E+00 0.000000000E+00 0.560000002E+00 0.000000000E+00 0.000000000E+00 0.579999983E+00 0.000000000E+00 0.000000000E+00 0.600000024E+00 0.000000000E+00 0.000000000E+00 0.620000005E+00 0.000000000E+00 0.000000000E+00 0.639999986E+00 0.000000000E+00 0.000000000E+00 0.660000026E+00 0.000000000E+00 0.000000000E+00 0.680000007E+00 0.000000000E+00 0.000000000E+00 0.699999988E+00 0.000000000E+00 0.000000000E+00 0.720000029E+00 0.000000000E+00 0.000000000E+00 0.740000010E+00 0.000000000E+00 0.000000000E+00 0.759999990E+00 0.000000000E+00 0.000000000E+00 0.779999971E+00 0.000000000E+00 0.000000000E+00 0.800000012E+00 0.000000000E+00 0.000000000E+00 0.819999993E+00 0.000000000E+00 0.000000000E+00 0.839999974E+00 0.000000000E+00 0.000000000E+00 0.860000014E+00 0.000000000E+00 0.000000000E+00 0.879999995E+00 0.000000000E+00 0.000000000E+00 0.899999976E+00 0.000000000E+00 0.000000000E+00 0.920000017E+00 0.000000000E+00 0.000000000E+00 0.939999998E+00 0.000000000E+00 0.000000000E+00 0.959999979E+00 0.000000000E+00 0.000000000E+00 0.980000019E+00 0.000000000E+00 0.000000000E+00 0.100000000E+01 0.000000000E+00 0.000000000E+00 0.101999998E+01 0.000000000E+00 0.000000000E+00 0.103999996E+01 0.000000000E+00 0.000000000E+00 0.105999994E+01 0.000000000E+00 0.000000000E+00 0.108000004E+01 0.000000000E+00 0.000000000E+00 0.110000002E+01 0.000000000E+00 0.000000000E+00 0.112000000E+01 0.000000000E+00 0.000000000E+00 0.113999999E+01 0.000000000E+00 0.000000000E+00 0.115999997E+01 0.000000000E+00 0.000000000E+00 0.117999995E+01 0.000000000E+00 0.000000000E+00 0.120000005E+01 0.000000000E+00 0.000000000E+00 0.122000003E+01 0.000000000E+00 0.000000000E+00 0.124000001E+01 0.000000000E+00 0.000000000E+00 0.125999999E+01 0.000000000E+00 0.000000000E+00 0.127999997E+01 0.000000000E+00 0.000000000E+00 0.129999995E+01 0.000000000E+00 0.000000000E+00 0.132000005E+01 0.000000000E+00 0.000000000E+00 0.134000003E+01 0.000000000E+00 0.000000000E+00 0.136000001E+01 0.000000000E+00 0.000000000E+00 0.138000000E+01 0.000000000E+00 0.000000000E+00 0.139999998E+01 0.000000000E+00 0.000000000E+00 0.141999996E+01 0.000000000E+00 0.000000000E+00 0.144000006E+01 0.000000000E+00 0.000000000E+00 0.146000004E+01 0.000000000E+00 0.000000000E+00 0.148000002E+01 0.000000000E+00 0.000000000E+00 0.150000000E+01 0.000000000E+00 0.000000000E+00 0.151999998E+01 0.000000000E+00 0.000000000E+00 0.153999996E+01 0.000000000E+00 0.000000000E+00 0.155999994E+01 0.000000000E+00 0.000000000E+00 0.158000004E+01 0.000000000E+00 0.000000000E+00 0.160000002E+01 0.000000000E+00 0.000000000E+00 0.162000000E+01 0.000000000E+00 0.000000000E+00 0.163999999E+01 0.000000000E+00 0.000000000E+00 0.165999997E+01 0.000000000E+00 0.000000000E+00 0.167999995E+01 0.000000000E+00 0.000000000E+00 0.170000005E+01 0.000000000E+00 0.000000000E+00 0.172000003E+01 0.000000000E+00 0.000000000E+00 0.174000001E+01 0.000000000E+00 0.000000000E+00 0.175999999E+01 0.000000000E+00 0.000000000E+00 0.177999997E+01 0.000000000E+00 0.000000000E+00 0.179999995E+01 0.000000000E+00 0.000000000E+00 0.182000005E+01 0.000000000E+00 0.000000000E+00 0.184000003E+01 0.000000000E+00 0.000000000E+00 0.186000001E+01 0.000000000E+00 0.000000000E+00 0.188000000E+01 0.000000000E+00 0.000000000E+00 0.189999998E+01 0.000000000E+00 0.000000000E+00 0.191999996E+01 0.000000000E+00 0.000000000E+00 0.194000006E+01 0.000000000E+00 0.000000000E+00 0.196000004E+01 0.000000000E+00 0.000000000E+00 0.198000002E+01 0.000000000E+00 0.000000000E+00 0.200000000E+01 0.000000000E+00 0.000000000E+00
0.000000000E+00 0.999999978E-02 0.000000000E+00 0.199999996E-01 0.999999978E-02 0.000000000E+00 0.399999991E-01 0.999999978E-02 0.000000000E+00 0.599999987E-01 0.999999978E-02 0.000000000E+00 0.799999982E-01 0.999999978E-02 0.000000000E+00 0.100000001E+00 0.999999978E-02 0.000000000E+00 0.119999997E+00 0.999999978E-02 0.000000000E+00 0.140000001E+00 0.999999978E-02 0.000000000E+00 0.159999996E+00 0.999999978E-02 0.000000000E+00 0.180000007E+00 0.999999978E-02 0.000000000E+00 0.200000003E+00 0.999999978E-02 0.000000000E+00 0.219999999E+00 0.999999978E-02 0.000000000E+00 0.239999995E+00 0.999999978E-02 0.000000000E+00 0.259999990E+00 0.999999978E-02 0.000000000E+00 0.280000001E+00 0.999999978E-02 0.000000000E+00 0.300000012E+00 0.999999978E-02 0.000000000E+00 0.319999993E+00 0.999999978E-02 0.000000000E+00 0.340000004E+00 0.999999978E-02 0.000000000E+00 0.360000014E+00 0.999999978E-02 0.000000000E+00 0.379999995E+00 0.999999978E-02 0.000000000E+00 0.400000006E+00 0.999999978E-02 0.000000000E+00 0.419999987E+00 0.999999978E-02 0.000000000E+00 0.439999998E+00 0.999999978E-02 0.000000000E+00 0.460000008E+00 0.999999978E-02 0.000000000E+00 0.479999989E+00 0.999999978E-02 0.000000000E+00 0.500000000E+00 0.999999978E-02 0.000000000E+00 0.519999981E+00 0.999999978E-02 0.000000000E+00 0.540000021E+00 0.999999978E-02 0.000000000E+00 0.560000002E+00 0.999999978E-02 0.000000000E+00 0.579999983E+00 0.999999978E-02 0.000000000E+00 0.600000024E+00 0.999999978E-02 0.000000000E+00 0.620000005E+00 0.999999978E-02 0.000000000E+00 0.639999986E+00 0.999999978E-02 0.000000000E+00 0.660000026E+00 0.999999978E-02 0.000000000E+00 0.680000007E+00 0.999999978E-02 0.000000000E+00 0.699999988E+00 0.999999978E-02 0.000000000E+00 0.720000029E+00 0.999999978E-02 0.000000000E+00 0.740000010E+00 0.999999978E-02 0.000000000E+00 0.759999990E+00 0.999999978E-02 0.000000000E+00 0.779999971E+00 0.999999978E-02 0.000000000E+00 0.800000012E+00 0.999999978E-02 0.000000000E+00 0.819999993E+00 0.999999978E-02 0.000000000E+00 0.839999974E+00 0.999999978E-02 0.000000000E+00 0.860000014E+00 0.999999978E-02 0.000000000E+00 0.879999995E+00 0.999999978E-02 0.000000000E+00 0.899999976E+00 0.999999978E-02 0.000000000E+00 0.920000017E+00 0.999999978E-02 0.000000000E+00 0.939999998E+00 0.999999978E-02 0.000000000E+00 0.959999979E+00 0.999999978E-02 0.000000000E+00 0.980000019E+00 0.999999978E-02 0.000000000E+00 0.100000000E+01 0.999999978E-02 0.000000000E+00 0.101999998E+01 0.999999978E-02 0.000000000E+00 0.103999996E+01 0.999999978E-02 0.000000000E+00 0.105999994E+01 0.999999978E-02 0.000000000E+00 0.108000004E+01 0.999999978E-02 0.000000000E+00 0.110000002E+01 0.999999978E-02 0.000000000E+00 0.112000000E+01 0.999999978E-02 0.000000000E+00 0.113999999E+01 0.999999978E-02 0.000000000E+00 0.115999997E+01 0.999999978E-02 0.000000000E+00 0.117999995E+01 0.999999978E-02 0.000000000E+00 0.120000005E+01 0.999999978E-02 0.000000000E+00 0.122000003E+01 0.999999978E-02 0.000000000E+00 0.124000001E+01 0.999999978E-02 0.000000000E+00 0.125999999E+01 0.999999978E-02 0.000000000E+00 0.127999997E+01 0.999999978E-02 0.000000000E+00 0.129999995E+01 0.999999978E-02 0.000000000E+00 0.132000005E+01 0.999999978E-02 0.000000000E+00 0.134000003E+01 0.999999978E-02 0.000000000E+00 0.136000001E+01 0.999999978E-02 0.000000000E+00 0.138000000E+01 0.999999978E-02 0.000000000E+00 0.139999998E+01 0.999999978E-02 0.000000000E+00 0.141999996E+01 0.999999978E-02 0.000000000E+00 0.144000006E+01 0.999999978E-02 0.000000000E+00 0.146000004E+01 0.999999978E-02 0.000000000E+00 0.148000002E+01 0.999999978E-02 0.000000000E+00 0.150000000E+01 0.999999978E-02 0.000000000E+00 0.151999998E+01 0.999999978E-02 0.000000000E+00 0.153999996E+01 0.999999978E-02 0.000000000E+00 0.155999994E+01 0.999999978E-02 0.000000000E+00 0.158000004E+01 0.999999978E-02 0.000000000E+00 0.160000002E+01 0.999999978E-02 0.000000000E+00 0.162000000E+01 0.999999978E-02 0.000000000E+00 0.163999999E+01 0.999999978E-02 0.000000000E+00 0.165999997E+01 0.999999978E-02 0.000000000E+00 0.167999995E+01 0.999999978E-02 0.000000000E+00 0.170000005E+01 0.999999978E-02 0.000000000E+00 0.172000003E+01 0.999999978E-02 0.000000000E+00 0.174000001E+01 0.999999978E-02 0.000000000E+00 0.175999999E+01 0.999999978E-02 0.000000000E+00 0.177999997E+01 0.999999978E-02 0.000000000E+00 0.179999995E+01 0.999999978E-02 0.000000000E+00 0.182000005E+01 0.999999978E-02 0.000000000E+00 0.184000003E+01 0.999999978E-02 0.000000000E+00 0.186000001E+01 0.999999978E-02 0.000000000E+00 0.188000000E+01 0.999999978E-02 0.000000000E+00 0.189999998E+01 0.999999978E-02 0.000000000E+00 0.191999996E+01 0.999999978E-02 0.000000000E+00 0.194000006E+01 0.999999978E-02 0.000000000E+00 0.196000004E+01 0.999999978E-02 0.000000000E+00 0.198000002E+01 0.999999978E-02 0.000000000E+00 0.200000000E+01 0.999999978E-02 0.000000000E+00
[...]
<CellData Scalars="Temperature, U, V">
<DataArray type="Float32" Name="Temp, K"/>
0.404464968E-10 0.236459685E-09 0.861220983E-09 0.231404429E-08 0.499612618E-08 0.913043774E-08 0.146074779E-07 0.209296758E-07 0.272854166E-07 0.327315668E-07 0.364235682E-07 0.378183245E-07 0.367891886E-07 0.336259021E-07 0.289312503E-07 0.234562396E-07 0.179277464E-07 0.129156623E-07 0.876568773E-08 0.559919666E-08 0.336192385E-08 0.189453853E-08 0.100022091E-08 0.493733110E-09 0.227368291E-09 0.102274425E-09 0.448312845E-10 0.191015606E-10 0.788920578E-11 0.314898108E-11 0.121073941E-11 0.446789903E-12 0.157612110E-12 0.529147140E-13 0.168229620E-13 0.503656463E-14 0.141095286E-14 0.367180286E-15 0.880206596E-16 0.192466499E-16 0.379411203E-17 0.664800354E-18 0.101729715E-18 0.132913069E-19 0.242826753E-19 0.209042520E-16 0.863796322E-14 0.191153907E-11 0.220460275E-09 0.312488702E-09 0.365202616E-11 0.218088961E-13 0.735925717E-16 0.137817790E-18 0.281072559E-20 0.211689154E-19 0.141937162E-18 0.831146168E-18 0.432610870E-17 0.203010471E-16 0.869011533E-16 0.342685840E-15 0.125540871E-14 0.430382819E-14 0.138953917E-13 0.424885109E-13 0.123658977E-12 0.344090614E-12 0.919093252E-12 0.236519203E-11 0.588344044E-11 0.141895835E-10 0.332728255E-10 0.760515401E-10 0.169848344E-09 0.371465136E-09 0.759425300E-09 0.145410373E-08 0.261211985E-08 0.440884707E-08 0.700050151E-08 0.104669207E-07 0.147456083E-07 0.195774952E-07 0.244902019E-07 0.288408071E-07 0.319247384E-07 0.331348105E-07 0.321294351E-07 0.289560376E-07 0.240790907E-07 0.182888815E-07 0.125061446E-07 0.754049534E-08 0.388603549E-08 0.163053682E-08 0.513649900E-09 0.104652925E-09 0.982505657E-11 0.409106491E-16
0.439903669E-09 0.246752352E-08 0.872028227E-08 0.229464678E-07 0.488637006E-07 0.885692373E-07 0.141189034E-06 0.202360781E-06 0.264809188E-06 0.319861641E-06 0.359431340E-06 0.377862051E-06 0.373111050E-06 0.346982716E-06 0.304433712E-06 0.252232581E-06 0.197407729E-06 0.145909524E-06 0.101781794E-06 0.669379858E-07 0.414478336E-07 0.241239686E-07 0.131734472E-07 0.673511868E-08 0.321655813E-08 0.149789603E-08 0.678673118E-09 0.298462421E-09 0.127067523E-09 0.522218831E-10 0.206526393E-10 0.783234155E-11 0.283740783E-11 0.977671178E-12 0.318861799E-12 0.978987602E-13 0.281200929E-13 0.750280016E-14 0.184419401E-14 0.413573101E-15 0.836447087E-16 0.150440397E-16 0.236448131E-17 0.317544608E-18 0.880054450E-19 0.452364795E-16 0.183227135E-13 0.402102960E-11 0.462411304E-09 0.654728605E-09 0.764642342E-11 0.458121158E-13 0.155919165E-15 0.304598197E-18 0.664163412E-19 0.505366254E-18 0.329929259E-17 0.188251038E-16 0.955333786E-16 0.437299870E-15 0.182657128E-14 0.702984449E-14 0.251363380E-13 0.841024096E-13 0.264953912E-12 0.790254852E-12 0.224237252E-11 0.607956090E-11 0.158105595E-10 0.395779416E-10 0.956681956E-10 0.223946195E-09 0.509010833E-09 0.112607967E-08 0.243018516E-08 0.512667597E-08 0.101220685E-07 0.187413889E-07 0.325993881E-07 0.533548992E-07 0.822757471E-07 0.119661820E-06 0.164261834E-06 0.212890498E-06 0.260466379E-06 0.300615909E-06 0.326825813E-06 0.333930785E-06 0.319539367E-06 0.284942359E-06 0.235126691E-06 0.177775192E-06 0.121446860E-06 0.734604129E-07 0.381715921E-07 0.162520539E-07 0.523864552E-08 0.110427478E-08 0.108719596E-09 0.454408136E-15
0.328437944E-08 0.177472224E-07 0.610442115E-07 0.157631078E-06 0.331464292E-06 0.596209418E-06 0.947004594E-06 0.135717528E-05 0.178137805E-05 0.216438502E-05 0.245292949E-05 0.260722345E-05 0.260904699E-05 0.246448053E-05 0.220097331E-05 0.186001819E-05 0.148772676E-05 0.112588725E-05 0.805570039E-06 0.544325019E-06 0.346842143E-06 0.208054686E-06 0.117258686E-06 0.619571807E-07 0.306189811E-07 0.147288333E-07 0.688234403E-08 0.311688475E-08 0.136474010E-08 0.576158343E-09 0.233823710E-09 0.909153100E-10 0.337417178E-10 0.119032059E-10 0.397268156E-11 0.124770333E-11 0.366526471E-12 0.100006171E-12 0.251387707E-13 0.576635890E-14 0.119326317E-14 0.219687246E-15 0.353647009E-16 0.486777055E-17 0.646273990E-18 0.734778384E-16 0.291814946E-13 0.635003248E-11 0.727845784E-09 0.102942177E-08 0.120201522E-10 0.722797405E-13 0.248153840E-15 0.598425158E-18 0.103966873E-17 0.774582679E-17 0.493768824E-16 0.275283537E-15 0.136577922E-14 0.611466012E-14 0.249875939E-13 0.941015861E-13 0.329250597E-12 0.107784756E-11 0.332151559E-11 0.968688671E-11 0.268628054E-10 0.711310941E-10 0.180524692E-09 0.440599557E-09 0.103728759E-08 0.236207942E-08 0.521570032E-08 0.111928466E-07 0.233927047E-07 0.477045106E-07 0.911580358E-07 0.163560188E-06 0.276067283E-06 0.439058596E-06 0.658888268E-06 0.934058676E-06 0.125187080E-05 0.158690068E-05 0.190249591E-05 0.215582759E-05 0.230592627E-05 0.232305251E-05 0.219685990E-05 0.194078575E-05 0.159079229E-05 0.119819697E-05 0.818069225E-06 0.496383052E-06 0.259893483E-06 0.112119267E-06 0.368891655E-07 0.801576316E-08 0.823689617E-09 0.344312053E-14
0.182185271E-07 0.950403560E-07 0.318698312E-06 0.808395384E-06 0.167939118E-05 0.299789440E-05 0.474364333E-05 0.679460072E-05 0.893991546E-05 0.109179537E-04 0.124688859E-04 0.133876947E-04 0.135642813E-04 0.130013559E-04 0.118072612E-04 0.101673559E-04 0.830268527E-05 0.642695068E-05 0.471193835E-05 0.326793361E-05 0.214071520E-05 0.132212188E-05 0.768286611E-06 0.419117583E-06 0.214115829E-06 0.106288283E-06 0.511704812E-07 0.238416682E-07 0.107256479E-07 0.464681493E-08 0.193321492E-08 0.769840691E-09 0.292383256E-09 0.105481304E-09 0.359816898E-10 0.115454599E-10 0.346401076E-11 0.965168050E-12 0.247746268E-12 0.580354585E-13 0.122674706E-13 0.230783931E-14 0.379807694E-15 0.534787420E-16 0.638973614E-17 0.106582023E-15 0.413594330E-13 0.892265949E-11 0.101894926E-08 0.143953072E-08 0.168144023E-10 0.101517522E-12 0.351732893E-15 0.202883912E-17 0.116835134E-16 0.851269965E-16 0.530873982E-15 0.289717286E-14 0.140767931E-13 0.617406381E-13 0.247222653E-12 0.912344636E-12 0.312797401E-11 0.100320247E-10 0.302779260E-10 0.864451843E-10 0.234545661E-09 0.607228379E-09 0.150552193E-08 0.358622509E-08 0.823122637E-08 0.182516757E-07 0.391900770E-07 0.816602750E-07 0.165442145E-06 0.326470229E-06 0.604382592E-06 0.105189451E-05 0.172450609E-05 0.266771985E-05 0.389984416E-05 0.539405619E-05 0.706535320E-05 0.876848208E-05 0.103111224E-04 0.114829063E-04 0.120956247E-04 0.120259801E-04 0.112492562E-04 0.985362658E-05 0.802850082E-05 0.602763566E-05 0.411459087E-05 0.250480480E-05 0.132115383E-05 0.577109347E-06 0.193558250E-06 0.432654481E-07 0.462756899E-08 0.192802673E-13
0.803825984E-07 0.405676303E-06 0.132825028E-05 0.331258252E-05 0.680147332E-05 0.120497443E-04 0.189888233E-04 0.271709650E-04 0.358128382E-04 0.439275500E-04 0.505102980E-04 0.547312084E-04 0.560899789E-04 0.544985269E-04 0.502769071E-04 0.440690164E-04 0.367027096E-04 0.290302705E-04 0.217864799E-04 0.154930858E-04 0.104231012E-04 0.662124376E-05 0.396313681E-05 0.222987001E-05 0.117642753E-05 0.602052921E-06 0.298344332E-06 0.142874740E-06 0.659763373E-07 0.293051663E-07 0.124860220E-07 0.508724884E-08 0.197518624E-08 0.727933880E-09 0.253512128E-09 0.830083363E-10 0.254055353E-10 0.721921004E-11 0.188966421E-11 0.451407900E-12 0.973175127E-13 0.186774983E-13 0.313707652E-14 0.451040756E-15 0.540781502E-16 0.148679376E-15 0.550225149E-13 0.117659259E-10 0.133812561E-08 0.188831084E-08 0.220751854E-10 0.133872324E-12 0.468964609E-15 0.126727660E-16 0.100688388E-15 0.718557954E-15 0.439161426E-14 0.234997484E-13 0.111998376E-12 0.481955621E-12 0.189367922E-11 0.685739226E-11 0.230669910E-10 0.725665153E-10 0.214749746E-09 0.600886063E-09 0.159682323E-08 0.404613409E-08 0.980984982E-08 0.228283952E-07 0.511313125E-07 0.110503898E-06 0.230949027E-06 0.467705149E-06 0.919446620E-06 0.175743946E-05 0.315511602E-05 0.533193133E-05 0.849890512E-05 0.128008296E-04 0.182472213E-04 0.246494637E-04 0.315863290E-04 0.384177911E-04 0.443572826E-04 0.485968158E-04 0.504620584E-04 0.495632194E-04 0.459015573E-04 0.398999509E-04 0.323405548E-04 0.242177830E-04 0.165359634E-04 0.101015312E-04 0.536674497E-05 0.237234326E-05 0.810094548E-06 0.185900021E-06 0.206391135E-07 0.854179195E-13
0.294908091E-06 0.144272803E-05 0.461890068E-05 0.113350625E-04 0.230096502E-04 0.404552593E-04 0.634713579E-04 0.906787536E-04 0.119646356E-03 0.147275772E-03 0.170347266E-03 0.186098769E-03 0.192712745E-03 0.189610786E-03 0.177504568E-03 0.158204188E-03 0.134238246E-03 0.108377390E-03 0.831693687E-04 0.605819805E-04 0.418149975E-04 0.272937905E-04 0.168101506E-04 0.974540671E-05 0.530415082E-05 0.279574533E-05 0.142470503E-05 0.700628505E-06 0.331799725E-06 0.150961611E-06 0.658124790E-07 0.274097491E-07 0.108690754E-07 0.408801304E-08 0.145203527E-08 0.484651985E-09 0.151143167E-09 0.437496081E-10 0.116631756E-10 0.283742300E-11 0.623011191E-12 0.121801562E-12 0.208458976E-13 0.305532047E-14 0.372556219E-15 0.222936398E-15 0.703617801E-13 0.149101339E-10 0.168802095E-08 0.237934406E-08 0.278539570E-10 0.169738491E-12 0.606562993E-15 0.839242428E-16 0.696079235E-15 0.487376913E-14 0.292399839E-13 0.153653647E-12 0.719354480E-12 0.304132023E-11 0.117410179E-10 0.417706460E-10 0.138017237E-09 0.426359226E-09 0.123846988E-08 0.339957729E-08 0.885700047E-08 0.219854268E-07 0.521723251E-07 0.118714937E-06 0.259709822E-06 0.547544573E-06 0.111484974E-05 0.219632489E-05 0.419360913E-05 0.777207697E-05 0.135448508E-04 0.222477756E-04 0.345132430E-04 0.506637807E-04 0.704933991E-04 0.930994502E-04 0.116832009E-03 0.139409356E-03 0.158209310E-03 0.170697836E-03 0.174911038E-03 0.169885010E-03 0.155923131E-03 0.134624308E-03 0.108640175E-03 0.811990831E-04 0.554861545E-04 0.340229126E-04 0.182060667E-04 0.814003215E-05 0.282685710E-05 0.664714378E-06 0.763958212E-07 0.313021961E-12
0.928585962E-06 0.441166912E-05 0.138288970E-04 0.334184406E-04 0.670857626E-04 0.117041061E-03 0.182750766E-03 0.260527944E-03 0.343864580E-03 0.424405385E-03 0.493328029E-03 0.542825961E-03 0.567399606E-03 0.564714253E-03 0.535879110E-03 0.485117664E-03 0.418918498E-03 0.344855274E-03 0.270328368E-03 0.201487521E-03 0.142534132E-03 0.954984571E-04 0.604604247E-04 0.360783633E-04 0.202372121E-04 0.109756602E-04 0.574657315E-05 0.289947116E-05 0.140699763E-05 0.655169401E-06 0.292006803E-06 0.124210800E-06 0.502612743E-07 0.192753298E-07 0.697626845E-08 0.237130093E-08 0.752760243E-09 0.221718532E-09 0.601312958E-10 0.148801995E-10 0.332334551E-11 0.660953930E-12 0.115098984E-12 0.171705488E-13 0.213085643E-14 0.447290783E-15 0.876027563E-13 0.183893317E-10 0.207155337E-08 0.291657631E-08 0.342083827E-10 0.209566224E-12 0.792798381E-15 0.483908282E-15 0.398769771E-14 0.274374148E-13 0.161829277E-12 0.836300105E-12 0.385113686E-11 0.160166862E-10 0.608231868E-10 0.212827242E-09 0.691470214E-09 0.209963424E-08 0.599208505E-08 0.161507234E-07 0.412887786E-07 0.100488464E-06 0.233598115E-06 0.520173614E-06 0.111241036E-05 0.228983185E-05 0.454605970E-05 0.872028158E-05 0.161871412E-04 0.291174474E-04 0.493092994E-04 0.787989266E-04 0.119090648E-03 0.170556057E-03 0.231876300E-03 0.299705687E-03 0.368715293E-03 0.432097848E-03 0.482500269E-03 0.513234001E-03 0.519519730E-03 0.499504327E-03 0.454801018E-03 0.390404544E-03 0.313940836E-03 0.234370091E-03 0.160368945E-03 0.987374660E-04 0.532177364E-04 0.240564041E-04 0.848771015E-05 0.204141770E-05 0.242237718E-06 0.979457834E-12
0.257008764E-05 0.118783064E-04 0.365002088E-04 0.869123105E-04 0.172567830E-03 0.298701983E-03 0.463972567E-03 0.659606128E-03 0.870205287E-03 0.107595045E-02 0.125567499E-02 0.139018067E-02 0.146519882E-02 0.147349422E-02 0.141578913E-02 0.130038348E-02 0.114156993E-02 0.957160606E-03 0.765608274E-03 0.583289075E-03 0.422461715E-03 0.290245982E-03 0.188697930E-03 0.115784445E-03 0.668653374E-04 0.372796931E-04 0.200364393E-04 0.103637094E-04 0.514905196E-05 0.245197657E-05 0.111638815E-05 0.484632551E-06 0.199953917E-06 0.781259430E-07 0.287878859E-07 0.995646587E-08 0.321432303E-08 0.962444791E-09 0.265269251E-09 0.666998123E-10 0.151350633E-10 0.305831987E-11 0.541182333E-12 0.820581870E-13 0.103528238E-13 0.133549927E-14 0.107032920E-12 0.222418091E-10 0.249194265E-08 0.350435925E-08 0.412031312E-10 0.253875236E-12 0.114707235E-14 0.238821935E-14 0.194059975E-13 0.131402945E-12 0.762982017E-12 0.388252581E-11 0.176071206E-10 0.721148211E-10 0.269669925E-09 0.928998822E-09 0.297066749E-08 0.887442742E-08 0.249040610E-07 0.659653594E-07 0.165607716E-06 0.395493970E-06 0.901313456E-06 0.196563815E-05 0.411237670E-05 0.827153599E-05 0.160255477E-04 0.299572857E-04 0.541121444E-04 0.945690335E-04 0.155775226E-03 0.242440234E-03 0.357321289E-03 0.499769114E-03 0.664579158E-03 0.841554720E-03 0.101607281E-02 0.117070763E-02 0.128770468E-02 0.135187083E-02 0.135330588E-02 0.128943962E-02 0.116590294E-02 0.996009563E-03 0.798826222E-03 0.596126367E-03 0.408702908E-03 0.252763828E-03 0.137233044E-03 0.626984620E-04 0.224548239E-04 0.551491212E-05 0.673935745E-06 0.268072587E-11
0.637142148E-05 0.286911363E-04 0.865204856E-04 0.203107484E-03 0.398918841E-03 0.684916275E-03 0.105784601E-02 0.149874599E-02 0.197479781E-02 0.244386122E-02 0.286063552E-02 0.318325567E-02 0.337926741E-02 0.343009131E-02 0.333336717E-02 0.310287764E-02 0.276607950E-02 0.235965801E-02 0.192385749E-02 0.149662828E-02 0.110866607E-02 0.780256814E-03 0.520385453E-03 0.328003196E-03 0.194821914E-03 0.111558125E-03 0.614964738E-04 0.325824294E-04 0.165616275E-04 0.805938180E-05 0.374582419E-05 0.165830454E-05 0.697125699E-06 0.277302519E-06 0.103951855E-06 0.365525494E-07 0.119910837E-07 0.364677177E-08 0.102054631E-08 0.260480471E-09 0.599893954E-10 0.123024525E-10 0.220950146E-11 0.340081262E-12 0.435642496E-13 0.481237957E-14 0.129086385E-12 0.265107034E-10 0.295274605E-08 0.414749746E-08 0.489108407E-10 0.303282546E-12 0.211944372E-14 0.102156951E-13 0.818186800E-13 0.545942198E-12 0.312456549E-11 0.156742657E-10 0.700773883E-10 0.282947638E-09 0.104288844E-08 0.354024565E-08 0.111514735E-07 0.328007772E-07 0.905825175E-07 0.235963526E-06 0.582168866E-06 0.136518986E-05 0.305225331E-05 0.652390963E-05 0.133624844E-04 0.262823050E-04 0.497313195E-04 0.906736095E-04 0.159522635E-03 0.271132682E-03 0.434848771E-03 0.659771904E-03 0.949254900E-03 0.129795098E-02 0.168995466E-02 0.209878501E-02 0.248957891E-02 0.282331696E-02 0.306241191E-02 0.317665725E-02 0.314840465E-02 0.297605619E-02 0.267512724E-02 0.227662502E-02 0.182279886E-02 0.136084645E-02 0.935436634E-03 0.581379281E-03 0.318009756E-03 0.146811275E-03 0.533291422E-04 0.133541835E-04 0.167654582E-05 0.654133388E-11
0.143651523E-04 0.631160510E-04 0.186966659E-03 0.432899717E-03 0.841091271E-03 0.143203780E-02 0.219812803E-02 0.310153887E-02 0.407826388E-02 0.504676625E-02 0.591925159E-02 0.661352323E-02 0.706375483E-02 0.722880429E-02 0.709715346E-02 0.668787863E-02 0.604750635E-02 0.524311187E-02 0.435261289E-02 0.345381373E-02 0.261409464E-02 0.188267464E-02 0.128680712E-02 0.832343183E-03 0.507969002E-03 0.298470812E-03 0.168614410E-03 0.914397388E-04 0.475170673E-04 0.236134256E-04 0.111959362E-04 0.505137723E-05 0.216221429E-05 0.875039234E-06 0.333481069E-06 0.119134448E-06 0.396836271E-07 0.122485648E-07 0.347746187E-08 0.900174268E-09 0.210211626E-09 0.437073849E-10 0.795847502E-11 0.124200780E-11 0.161343134E-12 0.171640114E-13 0.154586061E-12 0.312446805E-10 0.345790063E-08 0.485130425E-08 0.574132443E-10 0.358569511E-12 0.520093137E-14 0.384396359E-13 0.303714681E-12 0.199944033E-11 0.112920420E-10 0.559012350E-10 0.246633547E-09 0.982580239E-09 0.357268570E-08 0.119605970E-07 0.371400581E-07 0.107640389E-06 0.292730874E-06 0.750441643E-06 0.182073757E-05 0.419527214E-05 0.920796083E-05 0.193018659E-04 0.387316504E-04 0.745480647E-04 0.137870913E-03 0.245380594E-03 0.420841738E-03 0.696327712E-03 0.108844426E-02 0.161154440E-02 0.226569735E-02 0.303169037E-02 0.386894285E-02 0.471741054E-02 0.550361862E-02 0.614996534E-02 0.658567669E-02 0.675750664E-02 0.663829735E-02 0.623213034E-02 0.557507854E-02 0.473140227E-02 0.378535897E-02 0.282960222E-02 0.195148517E-02 0.121943816E-02 0.672157854E-03 0.313503842E-03 0.115427065E-03 0.294294132E-04 0.378712139E-05 0.144541740E-10
0.298296745E-04 0.128039392E-03 0.372901239E-03 0.851906021E-03 0.163732946E-02 0.276357960E-02 0.421361765E-02 0.591692748E-02 0.775782159E-02 0.959092285E-02 0.112602403E-01 0.126186619E-01 0.135454703E-01 0.139601426E-01 0.138312569E-01 0.131796440E-01 0.120753543E-01 0.106284274E-01 0.897437800E-02 0.725617772E-02 0.560559612E-02 0.412720628E-02 0.288810930E-02 0.191518315E-02 0.119975291E-02 0.722729426E-03 0.418087177E-03 0.231898011E-03 0.123114907E-03 0.624380555E-04 0.301811160E-04 0.138691994E-04 0.604112802E-05 0.248579977E-05 0.962504373E-06 0.349114941E-06 0.118000159E-06 0.369379052E-07 0.106310614E-07 0.278879320E-08 0.659792443E-09 0.138960038E-09 0.256278263E-10 0.405092973E-11 0.533052172E-12 0.565183615E-13 0.185358876E-12 0.364987589E-10 0.401176736E-08 0.562165869E-08 0.668024108E-10 0.420840554E-12 0.147607451E-13 0.128932658E-12 0.100604041E-11 0.654156633E-11 0.364928747E-10 0.178450962E-09 0.777628795E-09 0.305937831E-08 0.109822169E-07 0.362849235E-07 0.111149134E-06 0.317618031E-06 0.851150332E-06 0.214867032E-05 0.512966608E-05 0.116206838E-04 0.250538342E-04 0.515380380E-04 0.101382233E-03 0.191082698E-03 0.345655484E-03 0.600995554E-03 0.100569497E-02 0.162151363E-02 0.247271033E-02 0.357615529E-02 0.491788564E-02 0.644626888E-02 0.807152968E-02 0.967265200E-02 0.111108664E-01 0.122473976E-01 0.129623599E-01 0.131717185E-01 0.128397094E-01 0.119853327E-01 0.106818797E-01 0.904956833E-02 0.724154757E-02 0.542460801E-02 0.375622977E-02 0.236114627E-02 0.131183979E-02 0.618114951E-03 0.230540405E-03 0.597725448E-04 0.786756937E-05 0.293004024E-10
0.576567909E-04 0.242043563E-03 0.693576701E-03 0.156383624E-02 0.297298469E-02 0.497284345E-02 0.752723543E-02 0.105120689E-01 0.137315309E-01 0.169442687E-01 0.198935959E-01 0.223370083E-01 0.240721423E-01 0.249572657E-01 0.249253195E-01 0.239905287E-01 0.222468376E-01 0.198575612E-01 0.170363691E-01 0.140212551E-01 0.110446820E-01 0.830494892E-02 0.594413327E-02 0.403711200E-02 0.259344839E-02 0.160032499E-02 0.947247376E-03 0.537005835E-03 0.291078264E-03 0.150561056E-03 0.741530457E-04 0.346867855E-04 0.153660894E-04 0.642517352E-05 0.252617860E-05 0.929761597E-06 0.318682424E-06 0.101107346E-06 0.294793541E-07 0.783101139E-08 0.187557081E-08 0.399797695E-09 0.746142731E-10 0.119343008E-10 0.158910645E-11 0.169561414E-12 0.225624356E-12 0.423352672E-10 0.461918281E-08 0.646507292E-08 0.771822675E-10 0.491875692E-12 0.422330797E-13 0.389924584E-12 0.300781448E-11 0.193362808E-10 0.106650445E-09 0.515594123E-09 0.222091034E-08 0.863498162E-08 0.306233439E-07 0.999203706E-07 0.302131753E-06 0.851770324E-06 0.225052054E-05 0.559766477E-05 0.131570068E-04 0.293205267E-04 0.621296349E-04 0.125493956E-03 0.242151989E-03 0.447215833E-03 0.791822618E-03 0.134600990E-02 0.219952827E-02 0.345907989E-02 0.515099149E-02 0.728386082E-02 0.980737247E-02 0.126056317E-01 0.155023439E-01 0.182777308E-01 0.206943024E-01 0.225266740E-01 0.235904790E-01 0.237661395E-01 0.230146591E-01 0.213844813E-01 0.190085974E-01 0.160923824E-01 0.128922164E-01 0.968628656E-02 0.673908368E-02 0.426369626E-02 0.238850107E-02 0.113690482E-02 0.429350534E-03 0.113075570E-03 0.151941340E-04 0.550909492E-10