<?xml version="1.0"?>
<VTKFile type="StructuredGrid">
<StructuredGrid WholeExtent="     0   100     0   100     0     0">
<Piece Extent="     0   100     0   100     0     0">
<Points>
<DataArray type="Float32" NumberOfComponents="3"/>
0.000000000E+00 0.000000000E+00 0.000000000E+00 0.199999996E-01 0.000000000E+00 0.000000000E+00 0.399999991E-01 0.000000000E+00 0.000000000E+00 0.599999987E-01 0.000000000E+00 0.000000000E+00 0.799999982E-01 0.000000000E+00 0.000000000E+00 0.100000001E+00 0.000000000E+00 0.000000000E+00 0.119999997E+00 0.000000000E+00 0.000000000E+00 0.140000001E+00 0.000000000E+00 0.000000000E+00 0.159999996E+00 0.000000000E+00 0.000000000E+00 0.180000007E+00 0.000000000E+00 0.000000000E+00 0.200000003E+00 0.000000000E+00 0.000000000E+00 0.219999999E+00 0.000000000E+00 0.000000000E+00 0.239999995E+00 0.000000000E+00 0.000000000E+00 0.259999990E+00 0.000000000E+00 0.000000000E+00 0.280000001E+00 0.000000000E+00 0.000000000E+00 0.300000012E+00 0.000000000E+00 0.000000000E+00 0.319999993E+00 0.000000000E+00 0.000000000E+00 0.340000004E+00 0.000000000E+00 0.000000000E+00 0.360000014E+00 0.000000000E+00 0.000000000E+00 0.379999995E+00 0.000000000E+00 0.000000000E+00 0.400000006E+00 0.000000000E+00 0.000000000E+00 0.419999987E+00 0.000000000E+00 0.000000000E+00 0.439999998E+00 0.000000000E+00 0.000000000E+00 0.460000008E+00 0.000000000E+00 0.000000000E+00 0.479999989E+00 0.000000000E+00 0.000000000E+00 0.500000000E+00 0.000000000E+00 0.000000000E+00 0.519999981E+00 0.000000000E+00 0.000000000E+00 0.540000021E+00 0.000000000E+00 0.000000000E+00 0.560000002E+00 0.000000000E+00 0.000000000E+00 0.579999983E+00 0.000000000E+00 0.000000000E+00 0.600000024E+00 0.000000000E+00 0.000000000E+00 0.620000005E+00 0.000000000E+00 0.000000000E+00 0.639999986E+00 0.000000000E+00 0.000000000E+00 0.660000026E+00 0.000000000E+00 0.000000000E+00 0.680000007E+00 0.000000000E+00 0.000000000E+00 0.699999988E+00 0.000000000E+00 0.000000000E+00 0.720000029E+00 0.000000000E+00 0.000000000E+00 0.740000010E+00 0.000000000E+00 0.000000000E+00 0.759999990E+00 0.000000000E+00 0.000000000E+00 0.779999971E+00 0.000000000E+00 0.000000000E+00 0.800000012E+00 0.000000000E+00 0.000000000E+00 0.819999993E+00 0.000000000E+00 0.000000000E+00 0.839999974E+00 0.000000000E+00 0.000000000E+00 0.860000014E+00 0.000000000E+00 0.000000000E+00 0.879999995E+00 0.000000000E+00 0.000000000E+00 0.899999976E+00 0.000000000E+00 0.000000000E+00 0.920000017E+00 0.000000000E+00 0.000000000E+00 0.939999998E+00 0.000000000E+00 0.000000000E+00 0.959999979E+00 0.000000000E+00 0.000000000E+00 0.980000019E+00 0.000000000E+00 0.000000000E+00 0.100000000E+01 0.000000000E+00 0.000000000E+00 0.101999998E+01 0.000000000E+00 0.000000000E+00 0.103999996E+01 0.000000000E+00 0.000000000E+00 0.105999994E+01 0.000000000E+00 0.000000000E+00 0.108000004E+01 0.000000000E+00 0.000000000E+00 0.110000002E+01 0.000000000E+00 0.000000000E+00 0.112000000E+01 0.000000000E+00 0.000000000E+00 0.113999999E+01 0.000000000E+00 0.000000000E+00 0.115999997E+01 0.000000000E+00 0.000000000E+00 0.117999995E+01 0.000000000E+00 0.000000000E+00 0.120000005E+01 0.000000000E+00 0.000000000E+00 0.122000003E+01 0.000000000E+00 0.000000000E+00 0.124000001E+01 0.000000000E+00 0.000000000E+00 0.125999999E+01 0.000000000E+00 0.000000000E+00 0.127999997E+01 0.000000000E+00 0.000000000E+00 0.129999995E+01 0.000000000E+00 0.000000000E+00 0.132000005E+01 0.000000000E+00 0.000000000E+00 0.134000003E+01 0.000000000E+00 0.000000000E+00 0.136000001E+01 0.000000000E+00 0.000000000E+00 0.138000000E+01 0.000000000E+00 0.000000000E+00 0.139999998E+01 0.000000000E+00 0.000000000E+00 0.141999996E+01 0.000000000E+00 0.000000000E+00 0.144000006E+01 0.000000000E+00 0.000000000E+00 0.146000004E+01 0.000000000E+00 0.000000000E+00 0.148000002E+01 0.000000000E+00 0.000000000E+00 0.150000000E+01 0.000000000E+00 0.000000000E+00 0.151999998E+01 0.000000000E+00 0.000000000E+00 0.153999996E+01 0.000000000E+00 0.000000000E+00 0.155999994E+01 0.000000000E+00 0.000000000E+00 0.158000004E+01 0.000000000E+00 0.000000000E+00 0.160000002E+01 0.000000000E+00 0.000000000E+00 0.162000000E+01 0.000000000E+00 0.000000000E+00 0.163999999E+01 0.000000000E+00 0.000000000E+00 0.165999997E+01 0.000000000E+00 0.000000000E+00 0.167999995E+01 0.000000000E+00 0.000000000E+00 0.170000005E+01 0.000000000E+00 0.000000000E+00 0.172000003E+01 0.000000000E+00 0.000000000E+00 0.174000001E+01 0.000000000E+00 0.000000000E+00 0.175999999E+01 0.000000000E+00 0.000000000E+00 0.177999997E+01 0.000000000E+00 0.000000000E+00 0.179999995E+01 0.000000000E+00 0.000000000E+00 0.182000005E+01 0.000000000E+00 0.000000000E+00 0.184000003E+01 0.000000000E+00 0.000000000E+00 0.186000001E+01 0.000000000E+00 0.000000000E+00 0.188000000E+01 0.000000000E+00 0.000000000E+00 0.189999998E+01 0.000000000E+00 0.000000000E+00 0.191999996E+01 0.000000000E+00 0.000000000E+00 0.194000006E+01 0.000000000E+00 0.000000000E+00 0.196000004E+01 0.000000000E+00 0.000000000E+00 0.198000002E+01 0.000000000E+00 0.000000000E+00 0.200000000E+01 0.000000000E+00 0.000000000E+00
0.000000000E+00 0.999999978E-02 0.000000000E+00 0.199999996E-01 0.999999978E-02 0.000000000E+00 0.399999991E-01 0.999999978E-02 0.000000000E+00 0.599999987E-01 0.999999978E-02 0.000000000E+00 0.799999982E-01 0.999999978E-02 0.000000000E+00 0.100000001E+00 0.999999978E-02 0.000000000E+00 0.119999997E+00 0.999999978E-02 0.000000000E+00 0.140000001E+00 0.999999978E-02 0.000000000E+00 0.159999996E+00 0.999999978E-02 0.000000000E+00 0.180000007E+00 0.999999978E-02 0.000000000E+00 0.200000003E+00 0.999999978E-02 0.000000000E+00 0.219999999E+00 0.999999978E-02 0.000000000E+00 0.239999995E+00 0.999999978E-02 0.000000000E+00 0.259999990E+00 0.999999978E-02 0.000000000E+00 0.280000001E+00 0.999999978E-02 0.000000000E+00 0.300000012E+00 0.999999978E-02 0.000000000E+00 0.319999993E+00 0.999999978E-02 0.000000000E+00 0.340000004E+00 0.999999978E-02 0.000000000E+00 0.360000014E+00 0.999999978E-02 0.000000000E+00 0.379999995E+00 0.999999978E-02 0.000000000E+00 0.400000006E+00 0.999999978E-02 0.000000000E+00 0.419999987E+00 0.999999978E-02 0.000000000E+00 0.439999998E+00 0.999999978E-02 0.000000000E+00 0.460000008E+00 0.999999978E-02 0.000000000E+00 0.479999989E+00 0.999999978E-02 0.000000000E+00 0.500000000E+00 0.999999978E-02 0.000000000E+00 0.519999981E+00 0.999999978E-02 0.000000000E+00 0.540000021E+00 0.999999978E-02 0.000000000E+00 0.560000002E+00 0.999999978E-02 0.000000000E+00 0.579999983E+00 0.999999978E-02 0.000000000E+00 0.600000024E+00 0.999999978E-02 0.000000000E+00 0.620000005E+00 0.999999978E-02 0.000000000E+00 0.639999986E+00 0.999999978E-02 0.000000000E+00 0.660000026E+00 0.999999978E-02 0.000000000E+00 0.680000007E+00 0.999999978E-02 0.000000000E+00 0.699999988E+00 0.999999978E-02 0.000000000E+00 0.720000029E+00 0.999999978E-02 0.000000000E+00 0.740000010E+00 0.999999978E-02 0.000000000E+00 0.759999990E+00 0.999999978E-02 0.000000000E+00 0.779999971E+00 0.999999978E-02 0.000000000E+00 0.800000012E+00 0.999999978E-02 0.000000000E+00 0.819999993E+00 0.999999978E-02 0.000000000E+00 0.839999974E+00 0.999999978E-02 0.000000000E+00 0.860000014E+00 0.999999978E-02 0.000000000E+00 0.879999995E+00 0.999999978E-02 0.000000000E+00 0.899999976E+00 0.999999978E-02 0.000000000E+00 0.920000017E+00 0.999999978E-02 0.000000000E+00 0.939999998E+00 0.999999978E-02 0.000000000E+00 0.959999979E+00 0.999999978E-02 0.000000000E+00 0.980000019E+00 0.999999978E-02 0.000000000E+00 0.100000000E+01 0.999999978E-02 0.000000000E+00 0.101999998E+01 0.999999978E-02 0.000000000E+00 0.103999996E+01 0.999999978E-02 0.000000000E+00 0.105999994E+01 0.999999978E-02 0.000000000E+00 0.108000004E+01 0.999999978E-02 0.000000000E+00 0.110000002E+01 0.999999978E-02 0.000000000E+00 0.112000000E+01 0.999999978E-02 0.000000000E+00 0.113999999E+01 0.999999978E-02 0.000000000E+00 0.115999997E+01 0.999999978E-02 0.000000000E+00 0.117999995E+01 0.999999978E-02 0.000000000E+00 0.120000005E+01 0.999999978E-02 0.000000000E+00 0.122000003E+01 0.999999978E-02 0.000000000E+00 0.124000001E+01 0.999999978E-02 0.000000000E+00 0.125999999E+01 0.999999978E-02 0.000000000E+00 0.127999997E+01 0.999999978E-02 0.000000000E+00 0.129999995E+01 0.999999978E-02 0.000000000E+00 0.132000005E+01 0.999999978E-02 0.000000000E+00 0.134000003E+01 0.999999978E-02 0.000000000E+00 0.136000001E+01 0.999999978E-02 0.000000000E+00 0.138000000E+01 0.999999978E-02 0.000000000E+00 0.139999998E+01 0.999999978E-02 0.000000000E+00 0.141999996E+01 0.999999978E-02 0.000000000E+00 0.144000006E+01 0.999999978E-02 0.000000000E+00 0.146000004E+01 0.999999978E-02 0.000000000E+00 0.148000002E+01 0.999999978E-02 0.000000000E+00 0.150000000E+01 0.999999978E-02 0.000000000E+00 0.151999998E+01 0.999999978E-02 0.000000000E+00 0.153999996E+01 0.999999978E-02 0.000000000E+00 0.155999994E+01 0.999999978E-02 0.000000000E+00 0.158000004E+01 0.999999978E-02 0.000000000E+00 0.160000002E+01 0.999999978E-02 0.000000000E+00 0.162000000E+01 0.999999978E-02 0.000000000E+00 0.163999999E+01 0.999999978E-02 0.000000000E+00 0.165999997E+01 0.999999978E-02 0.000000000E+00 0.167999995E+01 0.999999978E-02 0.000000000E+00 0.170000005E+01 0.999999978E-02 0.000000000E+00 0.172000003E+01 0.999999978E-02 0.000000000E+00 0.174000001E+01 0.999999978E-02 0.000000000E+00 0.175999999E+01 0.999999978E-02 0.000000000E+00 0.177999997E+01 0.999999978E-02 0.000000000E+00 0.179999995E+01 0.999999978E-02 0.000000000E+00 0.182000005E+01 0.999999978E-02 0.000000000E+00 0.184000003E+01 0.999999978E-02 0.000000000E+00 0.186000001E+01 0.999999978E-02 0.000000000E+00 0.188000000E+01 0.999999978E-02 0.000000000E+00 0.189999998E+01 0.999999978E-02 0.000000000E+00 0.191999996E+01 0.999999978E-02 0.000000000E+00 0.194000006E+01 0.999999978E-02 0.000000000E+00 0.196000004E+01 0.999999978E-02 0.000000000E+00 0.198000002E+01 0.999999978E-02 0.000000000E+00 0.200000000E+01 0.999999978E-02 0.000000000E+00
[...]
<CellData Scalars="Temperature, U, V">
<DataArray type="Float32" Name="Temp, K"/>
0.202593076E-17 0.356638921E-16 0.334426342E-15 0.194193188E-14 0.772899692E-14 0.227158600E-13 0.521291079E-13 0.973733897E-13 0.152691634E-12 0.205662229E-12 0.242027644E-12 0.252045807E-12 0.234498131E-12 0.196308939E-12 0.148655597E-12 0.102223128E-12 0.640103679E-13 0.365688586E-13 0.190832694E-13 0.910215761E-14 0.396868987E-14 0.158140850E-14 0.575523048E-15 0.191113807E-15 0.578353104E-16 0.170089361E-16 0.484663981E-17 0.133384518E-17 0.353349379E-18 0.897775696E-19 0.217924868E-19 0.503260764E-20 0.110061823E-20 0.226808062E-21 0.437981191E-22 0.787696783E-23 0.131033041E-23 0.200051255E-24 0.277827844E-25 0.347379637E-26 0.386320289E-27 0.376697092E-28 0.610633653E-26 0.102988655E-22 0.363101683E-17 0.136122282E-14 0.233994031E-12 0.219275847E-10 0.109436959E-08 0.155000579E-08 0.421510292E-10 0.598757968E-12 0.489272531E-14 0.224693654E-16 0.467173322E-19 0.136744292E-24 0.750218626E-28 0.537955507E-28 0.497623272E-27 0.409256300E-26 0.302921478E-25 0.203894302E-24 0.125922869E-23 0.719161810E-23 0.382453209E-22 0.190566126E-21 0.894641574E-21 0.397726775E-20 0.168213139E-19 0.679702646E-19 0.263431874E-18 0.982866964E-18 0.354227648E-17 0.123716714E-16 0.420005125E-16 0.139002064E-15 0.420286896E-15 0.116209776E-14 0.294029234E-14 0.680955578E-14 0.144340513E-13 0.279874390E-13 0.495879549E-13 0.801455121E-13 0.117862968E-12 0.157159984E-12 0.189098045E-12 0.203989657E-12 0.195591847E-12 0.164775366E-12 0.120083536E-12 0.741328995E-13 0.376777501E-13 0.151625318E-13 0.458042002E-14 0.965628783E-15 0.128331063E-15 0.919822029E-17 0.257438976E-18 0.460960418E-24
0.494432554E-16 0.812189082E-15 0.719124027E-14 0.399058634E-13 0.153539995E-12 0.440754339E-12 0.996646017E-12 0.184798704E-11 0.289438569E-11 0.391425998E-11 0.464582843E-11 0.489866134E-11 0.463056069E-11 0.395062195E-11 0.305731395E-11 0.215393697E-11 0.138502653E-11 0.814259955E-12 0.438128293E-12 0.215866889E-12 0.973936101E-13 0.402232636E-13 0.151957338E-13 0.524596430E-14 0.165283191E-14 0.505551615E-15 0.149691448E-15 0.427766825E-16 0.117595263E-16 0.309909544E-17 0.780031007E-18 0.186745523E-18 0.423367064E-19 0.904460608E-20 0.181101178E-20 0.337830907E-21 0.583163783E-22 0.924422313E-23 0.133391685E-23 0.173436025E-24 0.200759353E-25 0.206260703E-26 0.111501229E-22 0.805544023E-20 0.992067322E-17 0.324287961E-14 0.532994059E-12 0.490127036E-10 0.242983300E-08 0.343419670E-08 0.932918187E-10 0.133550180E-11 0.111330318E-13 0.536215795E-16 0.129852351E-18 0.918111662E-22 0.107957772E-24 0.290530654E-26 0.258059868E-25 0.204025635E-24 0.145310792E-23 0.941902445E-23 0.560581725E-22 0.308702376E-21 0.158365475E-20 0.761431063E-20 0.344996095E-19 0.148030394E-18 0.604213665E-18 0.235570099E-17 0.880617721E-17 0.316752437E-16 0.109986983E-15 0.369816385E-15 0.120757157E-14 0.383985742E-14 0.111707993E-13 0.297613462E-13 0.726645442E-13 0.162649896E-12 0.333767654E-12 0.627630977E-12 0.108049420E-11 0.170026688E-11 0.243991264E-11 0.318245669E-11 0.375589750E-11 0.398628136E-11 0.377355222E-11 0.315112238E-11 0.228693887E-11 0.141377882E-11 0.724338341E-12 0.296213114E-12 0.918094133E-13 0.200791617E-13 0.280152696E-14 0.213322098E-15 0.641258825E-17 0.118090513E-22
0.787616762E-15 0.121226271E-13 0.101745272E-12 0.541420912E-12 0.201934021E-11 0.567312820E-11 0.126568010E-10 0.233121768E-10 0.364764920E-10 0.495199923E-10 0.592492166E-10 0.632084524E-10 0.606485695E-10 0.526754126E-10 0.416087477E-10 0.299934036E-10 0.197769561E-10 0.119470432E-10 0.661788983E-11 0.336276363E-11 0.156732299E-11 0.669747027E-12 0.262189901E-12 0.939312986E-13 0.307548481E-13 0.976498715E-14 0.299855084E-14 0.887932304E-15 0.252774007E-15 0.689475422E-16 0.179542315E-16 0.444594400E-17 0.104239988E-17 0.230309365E-18 0.476985525E-19 0.920573020E-20 0.164472283E-20 0.269984603E-21 0.403683980E-22 0.544286967E-23 0.653920873E-24 0.728464358E-25 0.376136232E-22 0.260838627E-19 0.194255889E-16 0.574632827E-14 0.909015701E-12 0.821634982E-10 0.404684819E-08 0.570693004E-08 0.154933497E-09 0.223432405E-11 0.189656183E-13 0.951020271E-16 0.256756293E-18 0.296387841E-21 0.371554472E-24 0.981111115E-25 0.839098822E-24 0.639555923E-23 0.439515684E-22 0.275101672E-21 0.158201382E-20 0.842196687E-20 0.417829542E-19 0.194330601E-18 0.851819790E-18 0.353591340E-17 0.139603289E-16 0.526331483E-16 0.190187471E-15 0.660893116E-15 0.221549239E-14 0.718573455E-14 0.226113904E-13 0.692094019E-13 0.194070481E-12 0.499068614E-12 0.117785794E-11 0.255238387E-11 0.507870915E-11 0.927617792E-11 0.155393805E-10 0.238412363E-10 0.334283608E-10 0.427022341E-10 0.494851417E-10 0.517199825E-10 0.483713035E-10 0.400562430E-10 0.289538983E-10 0.179183508E-10 0.924645777E-11 0.383672304E-11 0.121735087E-11 0.275378841E-12 0.401933430E-13 0.323862476E-14 0.104143495E-15 0.196590966E-21
0.906641197E-14 0.131111241E-12 0.104586576E-11 0.534920762E-11 0.193753711E-10 0.533420391E-10 0.117513207E-09 0.215095108E-09 0.336262962E-09 0.458204308E-09 0.552466406E-09 0.596032390E-09 0.580162474E-09 0.512625387E-09 0.413006546E-09 0.304368697E-09 0.205624934E-09 0.127522923E-09 0.726552291E-10 0.380380831E-10 0.182963870E-10 0.808115380E-11 0.327471448E-11 0.121611673E-11 0.413311150E-12 0.136058984E-12 0.432730566E-13 0.132604456E-13 0.390359496E-14 0.110038897E-14 0.295997807E-15 0.756895407E-16 0.183218372E-16 0.417904798E-17 0.893564338E-18 0.178078816E-18 0.328634883E-19 0.557461572E-20 0.861816074E-21 0.120224901E-21 0.149566545E-22 0.165303170E-23 0.851168611E-22 0.565981726E-19 0.328355796E-16 0.899369250E-14 0.137620644E-11 0.122428345E-09 0.599127192E-08 0.842967562E-08 0.228811886E-09 0.332337174E-11 0.286819146E-13 0.148916015E-15 0.436647966E-18 0.641601956E-21 0.106041473E-23 0.232058404E-23 0.191654846E-22 0.141157294E-21 0.938130857E-21 0.568248847E-20 0.316409541E-19 0.163166080E-18 0.784369104E-18 0.353541585E-17 0.150190423E-16 0.604161536E-16 0.231104999E-15 0.843885585E-15 0.295193904E-14 0.992407433E-14 0.321613226E-13 0.100750971E-12 0.305889916E-12 0.902278848E-12 0.244142900E-11 0.606656652E-11 0.138543569E-10 0.290932521E-10 0.561863056E-10 0.997696509E-10 0.162775390E-09 0.243693649E-09 0.334116623E-09 0.418305834E-09 0.476291617E-09 0.490487650E-09 0.453414500E-09 0.372450404E-09 0.268155220E-09 0.166094985E-09 0.862804689E-10 0.362901202E-10 0.117695758E-10 0.274822634E-11 0.418594873E-12 0.355971051E-13 0.122122246E-14 0.235639805E-20
0.806918280E-13 0.109937623E-11 0.835655590E-11 0.411715766E-10 0.145074161E-09 0.391863597E-09 0.853067061E-09 0.155224378E-08 0.242461562E-08 0.331550942E-08 0.402697209E-08 0.439128645E-08 0.433349578E-08 0.389268839E-08 0.319636806E-08 0.240630094E-08 0.166416914E-08 0.105860676E-08 0.619770513E-09 0.333995442E-09 0.165630495E-09 0.755366047E-10 0.316511817E-10 0.121708338E-10 0.428869397E-11 0.146199654E-11 0.480995072E-12 0.152328034E-12 0.463062985E-13 0.134706453E-13 0.373738423E-14 0.985323358E-15 0.245842631E-15 0.577893191E-16 0.127341271E-16 0.261561768E-17 0.497615365E-18 0.870495473E-19 0.138849601E-19 0.199969237E-20 0.257013256E-21 0.291143380E-22 0.163478422E-21 0.102797276E-18 0.510040128E-16 0.131321472E-13 0.195124602E-11 0.171019102E-09 0.831512548E-08 0.116720198E-07 0.316924043E-09 0.463558922E-11 0.406293854E-13 0.217506586E-15 0.681054660E-18 0.116356807E-20 0.606454767E-23 0.411636803E-22 0.329004147E-21 0.234688204E-20 0.151170714E-19 0.888004948E-19 0.479735028E-18 0.240107081E-17 0.112050316E-16 0.490332252E-16 0.202225027E-15 0.789620842E-15 0.293104761E-14 0.103815949E-13 0.352060435E-13 0.114665642E-12 0.359712531E-12 0.108976445E-11 0.319617184E-11 0.909578749E-11 0.237755943E-10 0.571465653E-10 0.126412353E-09 0.257499938E-09 0.483124873E-09 0.834789848E-09 0.132762168E-08 0.194112726E-08 0.260447175E-08 0.319813598E-08 0.358033070E-08 0.363501029E-08 0.332290995E-08 0.270848410E-08 0.194260474E-08 0.120415178E-08 0.629385211E-09 0.268101041E-09 0.887532201E-10 0.213510737E-10 0.338573462E-11 0.303070964E-12 0.110625180E-13 0.217561991E-19
0.580188187E-12 0.746758298E-11 0.542257177E-10 0.257899924E-09 0.885462537E-09 0.234914532E-08 0.505664310E-08 0.914924136E-08 0.142787542E-07 0.195891801E-07 0.239576483E-07 0.263917901E-07 0.263877382E-07 0.240803057E-07 0.201364170E-07 0.154727715E-07 0.109449347E-07 0.713487136E-08 0.428841984E-08 0.237655939E-08 0.121386834E-08 0.571023229E-09 0.247149606E-09 0.982979531E-10 0.358724751E-10 0.126485706E-10 0.429936945E-11 0.140534958E-11 0.440570242E-12 0.132075286E-12 0.377400680E-13 0.102426883E-13 0.262993905E-14 0.636056787E-15 0.144190736E-15 0.304702169E-16 0.596478079E-17 0.107395444E-17 0.176382139E-18 0.261690768E-19 0.346715500E-20 0.404613927E-21 0.315295612E-21 0.168761208E-18 0.749856232E-16 0.183391239E-13 0.265381684E-11 0.229337868E-09 0.110774518E-07 0.155127662E-07 0.421570417E-09 0.620958189E-11 0.552227738E-13 0.303850253E-15 0.100436963E-17 0.191341477E-20 0.676119050E-22 0.572167555E-21 0.443557832E-20 0.307116490E-19 0.192139167E-18 0.109678256E-17 0.576011149E-17 0.280332337E-16 0.127227565E-15 0.541460041E-15 0.217156611E-14 0.824365583E-14 0.297394962E-13 0.102323654E-12 0.336873080E-12 0.106438458E-11 0.323636582E-11 0.949361683E-11 0.269292037E-10 0.740217887E-10 0.187116739E-09 0.435500858E-09 0.934084810E-09 0.184749349E-08 0.337071282E-08 0.567266767E-08 0.880186679E-08 0.125790081E-07 0.165300449E-07 0.199233288E-07 0.219451444E-07 0.219794885E-07 0.198792769E-07 0.160845097E-07 0.114945324E-07 0.713006365E-08 0.374841269E-08 0.161583458E-08 0.545308909E-09 0.134908223E-09 0.222214677E-10 0.208835683E-11 0.808828644E-13 0.161658466E-18
0.347723499E-11 0.423942687E-10 0.294810454E-09 0.135623712E-08 0.454384086E-08 0.118516539E-07 0.252387213E-07 0.454166553E-07 0.708113106E-07 0.974352048E-07 0.119934143E-06 0.133390870E-06 0.135037354E-06 0.125095070E-06 0.106445825E-06 0.834150882E-07 0.602989161E-07 0.402464408E-07 0.248113459E-07 0.141262904E-07 0.742413997E-08 0.359875574E-08 0.160722646E-08 0.660459298E-09 0.249338550E-09 0.908291012E-10 0.318591924E-10 0.107352304E-10 0.346615141E-11 0.106935955E-11 0.314263454E-12 0.876732294E-13 0.231305690E-13 0.574648666E-14 0.133795122E-14 0.290373615E-15 0.583833208E-16 0.107988801E-16 0.182256758E-17 0.277998809E-18 0.378873698E-19 0.455013233E-20 0.912616798E-21 0.259711706E-18 0.106084028E-15 0.248286990E-13 0.350717198E-11 0.299009095E-09 0.143453178E-07 0.200412451E-07 0.545404777E-09 0.809066356E-11 0.729576921E-13 0.411576141E-15 0.142456115E-17 0.300845306E-20 0.756300615E-21 0.643066970E-20 0.484595296E-19 0.326374838E-18 0.198724311E-17 0.110449184E-16 0.564953704E-16 0.267840632E-15 0.118422734E-14 0.490962361E-14 0.191782117E-13 0.708893122E-13 0.248908912E-12 0.833096558E-12 0.266630619E-11 0.818319804E-11 0.241469327E-10 0.686682239E-10 0.188601662E-09 0.501294672E-09 0.122681054E-08 0.276773982E-08 0.576181947E-08 0.110761809E-07 0.196696632E-07 0.322707372E-07 0.488958314E-07 0.683607766E-07 0.880546907E-07 0.104252933E-06 0.113065184E-06 0.111785972E-06 0.100087910E-06 0.804217635E-07 0.572786298E-07 0.355557326E-07 0.187957401E-07 0.819375412E-08 0.281570456E-08 0.715171644E-09 0.122094335E-09 0.120159525E-10 0.492450265E-12 0.997346554E-18
0.177877643E-10 0.205969047E-09 0.137491507E-08 0.612965412E-08 0.200669525E-07 0.515024006E-07 0.108553394E-06 0.194295396E-06 0.302597499E-06 0.417457841E-06 0.516915918E-06 0.580088283E-06 0.594172207E-06 0.558333568E-06 0.483057136E-06 0.385723951E-06 0.284695489E-06 0.194379794E-06 0.122795527E-06 0.717583646E-07 0.387668138E-07 0.193442737E-07 0.890521878E-08 0.377687748E-08 0.147340751E-08 0.553884882E-09 0.200246708E-09 0.694722196E-10 0.230730920E-10 0.731617631E-11 0.220827653E-11 0.632375608E-12 0.171176414E-12 0.436175652E-13 0.104136509E-13 0.231727039E-14 0.477714194E-15 0.906090467E-16 0.156853379E-16 0.245485099E-17 0.343442314E-18 0.423642296E-19 0.520139651E-20 0.382548389E-18 0.145911140E-15 0.328594506E-13 0.453882027E-11 0.381916360E-09 0.181949478E-07 0.253587853E-07 0.691491864E-09 0.103320911E-10 0.944272872E-13 0.545113506E-15 0.196410728E-17 0.506361278E-20 0.719771695E-20 0.598532899E-19 0.439366909E-18 0.288425182E-17 0.171252675E-16 0.928472584E-16 0.463382344E-15 0.214374171E-14 0.924909665E-14 0.374135605E-13 0.142561811E-12 0.513850898E-12 0.175854535E-11 0.573335129E-11 0.178613357E-10 0.533155325E-10 0.152862098E-09 0.421913560E-09 0.112332499E-08 0.289030999E-08 0.685526613E-08 0.150069681E-07 0.303528758E-07 0.567657956E-07 0.982136825E-07 0.157227603E-06 0.232838275E-06 0.318733669E-06 0.402766091E-06 0.468793729E-06 0.500968554E-06 0.489264835E-06 0.433917535E-06 0.346409109E-06 0.245967925E-06 0.152809420E-06 0.812099898E-07 0.357814507E-07 0.125074742E-07 0.325641714E-08 0.575003711E-09 0.591127147E-10 0.255653875E-11 0.523124281E-17
0.791404442E-10 0.872575734E-09 0.560401858E-08 0.242546019E-07 0.776846036E-07 0.196335378E-06 0.409727534E-06 0.729457440E-06 0.113455462E-05 0.156867225E-05 0.195291727E-05 0.220987226E-05 0.228854901E-05 0.217969864E-05 0.191583899E-05 0.155749581E-05 0.117269849E-05 0.818306887E-06 0.529240822E-06 0.317134294E-06 0.175945246E-06 0.902862780E-07 0.427991189E-07 0.187146831E-07 0.753606599E-08 0.292023272E-08 0.108693055E-08 0.387797128E-09 0.132321085E-09 0.430688367E-10 0.133341532E-10 0.391424783E-11 0.108556610E-11 0.283295875E-12 0.692508252E-13 0.157748977E-13 0.332889602E-14 0.646350937E-15 0.114558387E-15 0.183617867E-16 0.263190383E-17 0.332780447E-18 0.374850530E-19 0.547962178E-18 0.196461920E-15 0.427440167E-13 0.578133765E-11 0.480246565E-09 0.227130439E-07 0.315804058E-07 0.863375205E-09 0.129965483E-10 0.120342362E-12 0.709875126E-15 0.265142075E-17 0.123391760E-19 0.579216422E-19 0.470197222E-18 0.336911822E-17 0.215990490E-16 0.125290281E-15 0.663810933E-15 0.323800812E-14 0.146417404E-13 0.617406652E-13 0.244047241E-12 0.908433864E-12 0.319738853E-11 0.106795597E-10 0.339603901E-10 0.103113032E-09 0.299714309E-09 0.835934544E-09 0.224193375E-08 0.579270498E-08 0.144439385E-07 0.332368622E-07 0.706731313E-07 0.139016237E-06 0.253179365E-06 0.427169567E-06 0.667882489E-06 0.967557071E-06 0.129797604E-05 0.161041476E-05 0.184421845E-05 0.194340419E-05 0.187620606E-05 0.164924825E-05 0.130883006E-05 0.926832286E-06 0.576362936E-06 0.307903179E-06 0.137050748E-06 0.486855463E-07 0.129745210E-07 0.236488851E-08 0.253348453E-09 0.115314451E-10 0.237704974E-16
0.311004306E-09 0.327322325E-08 0.202689172E-07 0.853046487E-07 0.267604719E-06 0.666434573E-06 0.137736993E-05 0.243907539E-05 0.378752725E-05 0.524599000E-05 0.656252405E-05 0.748286811E-05 0.782906500E-05 0.755183237E-05 0.673764544E-05 0.557172280E-05 0.427581381E-05 0.304659147E-05 0.201537341E-05 0.123718667E-05 0.704201227E-06 0.371246955E-06 0.181032007E-06 0.815282064E-07 0.338512045E-07 0.135066545E-07 0.516994225E-08 0.189473748E-08 0.663427424E-09 0.221389906E-09 0.702183589E-10 0.211024635E-10 0.598822597E-11 0.159824855E-11 0.399432386E-12 0.930033774E-13 0.200582128E-13 0.398027982E-14 0.721050667E-15 0.118150429E-15 0.173183777E-16 0.224023898E-17 0.252874050E-18 0.781626432E-18 0.260209501E-15 0.548609891E-13 0.727336334E-11 0.596541760E-09 0.279983041E-07 0.388368129E-07 0.106515796E-08 0.161579465E-10 0.151556353E-12 0.912487312E-15 0.352415420E-17 0.522153658E-19 0.399059069E-18 0.316693646E-17 0.221927198E-16 0.139201434E-15 0.790265646E-15 0.409855950E-14 0.195718906E-13 0.866374233E-13 0.357589799E-12 0.138319889E-11 0.503674099E-11 0.173339936E-10 0.565791580E-10 0.175703396E-09 0.520571086E-09 0.147515256E-08 0.400696631E-08 0.104538724E-07 0.262414108E-07 0.634781401E-07 0.141861989E-06 0.293295614E-06 0.561627417E-06 0.997018105E-06 0.164198036E-05 0.250961966E-05 0.355978887E-05 0.468394137E-05 0.571083956E-05 0.643990961E-05 0.669724614E-05 0.639614564E-05 0.557641397E-05 0.440160466E-05 0.310984592E-05 0.193621577E-05 0.103971479E-05 0.467343057E-06 0.168581593E-06 0.459251162E-07 0.862488214E-08 0.960610369E-09 0.458936639E-10 0.950290697E-16
0.109361675E-08 0.110132916E-07 0.658892461E-07 0.270060895E-06 0.830609736E-06 0.203938839E-05 0.417512547E-05 0.735307913E-05 0.113963042E-04 0.158047205E-04 0.198542766E-04 0.227959390E-04 0.240775153E-04 0.235019797E-04 0.212658961E-04 0.178730606E-04 0.139672602E-04 0.101526384E-04 0.686316662E-05 0.431208264E-05 0.251571009E-05 0.136120559E-05 0.682118014E-06 0.316059328E-06 0.135168932E-06 0.554735635E-07 0.218125304E-07 0.820256130E-08 0.294389513E-08 0.100603392E-08 0.326495275E-09 0.100328294E-09 0.290931827E-10 0.793094583E-11 0.202367962E-11 0.480939453E-12 0.105851715E-12 0.214337893E-13 0.396225072E-14 0.662611058E-15 0.991470858E-16 0.130967812E-16 0.150374808E-17 0.118135764E-17 0.340228571E-15 0.696695035E-13 0.906078424E-11 0.733760164E-09 0.341631825E-07 0.472766288E-07 0.130159661E-08 0.199035406E-10 0.189095484E-12 0.116107708E-14 0.464106144E-17 0.278170888E-18 0.238436238E-17 0.185320419E-16 0.127239926E-15 0.782223068E-15 0.435344738E-14 0.221369638E-13 0.103646495E-12 0.449806045E-12 0.181978694E-11 0.689776491E-11 0.246030574E-10 0.828963148E-10 0.264743755E-09 0.803841549E-09 0.232665354E-08 0.643489173E-08 0.170417191E-07 0.432968648E-07 0.105701758E-06 0.248320532E-06 0.539521352E-06 0.108564348E-05 0.202573960E-05 0.350866935E-05 0.564551101E-05 0.844265560E-05 0.117361042E-04 0.151597078E-04 0.181790838E-04 0.202033334E-04 0.207518897E-04 0.196208057E-04 0.169780524E-04 0.133371832E-04 0.940600330E-05 0.586493479E-05 0.316579099E-05 0.143659327E-05 0.525848691E-06 0.146262110E-06 0.282532184E-07 0.326424154E-08 0.163267899E-09 0.338628208E-15
0.347964080E-08 0.336061845E-07 0.194620398E-06 0.777933110E-06 0.234787922E-05 0.568610903E-05 0.115320800E-04 0.201957682E-04 0.312288903E-04 0.433410096E-04 0.546396150E-04 0.631245130E-04 0.672542301E-04 0.663743194E-04 0.608595401E-04 0.519392779E-04 0.412955924E-04 0.305950707E-04 0.211156439E-04 0.135658338E-04 0.810441088E-05 0.449637082E-05 0.231319063E-05 0.110162910E-05 0.484764882E-06 0.204418697E-06 0.824829200E-07 0.317923678E-07 0.116829133E-07 0.408398160E-08 0.135463818E-08 0.425131486E-09 0.125825100E-09 0.349899935E-10 0.910360936E-11 0.220530690E-11 0.494629782E-12 0.102052800E-12 0.192218406E-13 0.327541055E-14 0.499472671E-15 0.672567454E-16 0.786704515E-17 0.217569636E-17 0.440367585E-15 0.877273108E-13 0.111981821E-10 0.895348018E-09 0.413359018E-07 0.570690091E-07 0.157821323E-08 0.243365259E-10 0.234196153E-12 0.146563487E-14 0.613110406E-17 0.143993182E-17 0.124974484E-16 0.953007952E-16 0.642206405E-15 0.387589486E-14 0.211803418E-13 0.105754909E-12 0.486184281E-12 0.207144480E-11 0.822555305E-11 0.305915120E-10 0.107013259E-09 0.353430396E-09 0.110569232E-08 0.328619532E-08 0.930245481E-08 0.251380250E-07 0.649770300E-07 0.160931862E-06 0.382505220E-06 0.873603710E-06 0.184715952E-05 0.362117498E-05 0.659046555E-05 0.111477193E-04 0.175405185E-04 0.256889925E-04 0.350274713E-04 0.444568759E-04 0.524797106E-04 0.575287668E-04 0.584114678E-04 0.547189265E-04 0.470283558E-04 0.367903958E-04 0.259126682E-04 0.161868356E-04 0.878388801E-05 0.402329852E-05 0.149350012E-05 0.423685236E-06 0.840462064E-07 0.100516218E-07 0.525018695E-09 0.108771588E-14