<?xml version="1.0"?>
<VTKFile type="StructuredGrid">
<StructuredGrid WholeExtent="     0     8     0     8     0     0">
<Piece Extent="     0     8     0     8     0     0">
<Points>
<DataArray type="Float32" NumberOfComponents="3"/>
0.185111678E-31 0.185111678E-31 0.000000000E+00 0.442488016E-40 0.442488016E-40 0.000000000E+00 0.185111678E-31 0.185111678E-31 0.000000000E+00 0.442488016E-40 0.442488016E-40 0.000000000E+00 0.000000000E+00 0.000000000E+00 0.000000000E+00 0.000000000E+00 0.000000000E+00 0.000000000E+00 0.000000000E+00 0.000000000E+00 0.000000000E+00 0.000000000E+00 0.000000000E+00 0.000000000E+00 0.000000000E+00 0.000000000E+00 0.000000000E+00
0.000000000E+00 0.000000000E+00 0.000000000E+00 0.000000000E+00 0.000000000E+00 0.000000000E+00 0.000000000E+00 0.000000000E+00 0.000000000E+00 0.000000000E+00 0.000000000E+00 0.000000000E+00 0.000000000E+00 0.000000000E+00 0.000000000E+00 0.000000000E+00 0.000000000E+00 0.000000000E+00 0.000000000E+00 0.000000000E+00 0.000000000E+00 0.000000000E+00 0.000000000E+00 0.000000000E+00 0.000000000E+00 0.000000000E+00 0.000000000E+00
0.000000000E+00 0.000000000E+00 0.000000000E+00 0.000000000E+00 0.000000000E+00 0.000000000E+00 0.000000000E+00 0.000000000E+00 0.000000000E+00 0.000000000E+00 0.000000000E+00 0.000000000E+00 0.000000000E+00 0.000000000E+00 0.000000000E+00 0.000000000E+00 0.000000000E+00 0.000000000E+00 0.000000000E+00 0.000000000E+00 0.000000000E+00 0.000000000E+00 0.000000000E+00 0.000000000E+00 0.000000000E+00 0.000000000E+00 0.000000000E+00
0.000000000E+00 0.000000000E+00 0.000000000E+00 0.000000000E+00 0.000000000E+00 0.000000000E+00 0.000000000E+00 0.000000000E+00 0.000000000E+00 0.000000000E+00 0.000000000E+00 0.000000000E+00 0.000000000E+00 0.000000000E+00 0.000000000E+00 0.000000000E+00 0.000000000E+00 0.000000000E+00 0.000000000E+00 0.000000000E+00 0.000000000E+00 0.000000000E+00 0.000000000E+00 0.000000000E+00 0.000000000E+00 0.000000000E+00 0.000000000E+00
0.000000000E+00 0.000000000E+00 0.000000000E+00 0.000000000E+00 0.000000000E+00 0.000000000E+00 0.000000000E+00 0.000000000E+00 0.000000000E+00 0.000000000E+00 0.000000000E+00 0.000000000E+00 0.000000000E+00 0.000000000E+00 0.000000000E+00 0.000000000E+00 0.000000000E+00 0.000000000E+00 0.000000000E+00 0.000000000E+00 0.000000000E+00 0.000000000E+00 0.000000000E+00 0.000000000E+00 0.000000000E+00 0.000000000E+00 0.000000000E+00
0.000000000E+00 0.000000000E+00 0.000000000E+00 0.000000000E+00 0.000000000E+00 0.000000000E+00 0.000000000E+00 0.000000000E+00 0.000000000E+00 0.000000000E+00 0.000000000E+00 0.000000000E+00 0.000000000E+00 0.000000000E+00 0.000000000E+00 0.000000000E+00 0.000000000E+00 0.000000000E+00 0.000000000E+00 0.000000000E+00 0.000000000E+00 0.000000000E+00 0.000000000E+00 0.000000000E+00 0.000000000E+00 0.000000000E+00 0.000000000E+00
0.000000000E+00 0.000000000E+00 0.000000000E+00 0.000000000E+00 0.000000000E+00 0.000000000E+00 0.000000000E+00 0.000000000E+00 0.000000000E+00 0.000000000E+00 0.000000000E+00 0.000000000E+00 0.000000000E+00 0.000000000E+00 0.000000000E+00 0.000000000E+00 0.000000000E+00 0.000000000E+00 0.000000000E+00 0.000000000E+00 0.000000000E+00 0.000000000E+00 0.000000000E+00 0.000000000E+00 0.000000000E+00 0.000000000E+00 0.000000000E+00
0.000000000E+00 0.000000000E+00 0.000000000E+00 0.000000000E+00 0.000000000E+00 0.000000000E+00 0.000000000E+00 0.000000000E+00 0.000000000E+00 0.000000000E+00 0.000000000E+00 0.000000000E+00 0.000000000E+00 0.000000000E+00 0.000000000E+00 0.000000000E+00 0.000000000E+00 0.000000000E+00 0.000000000E+00 0.000000000E+00 0.000000000E+00 0.000000000E+00 0.000000000E+00 0.000000000E+00 0.000000000E+00 0.000000000E+00 0.000000000E+00
0.000000000E+00 0.000000000E+00 0.000000000E+00 0.000000000E+00 0.000000000E+00 0.000000000E+00 0.000000000E+00 0.000000000E+00 0.000000000E+00 0.000000000E+00 0.000000000E+00 0.000000000E+00 0.000000000E+00 0.000000000E+00 0.000000000E+00 0.000000000E+00 0.000000000E+00 0.000000000E+00 0.000000000E+00 0.000000000E+00 0.000000000E+00 0.000000000E+00 0.000000000E+00 0.000000000E+00 0.000000000E+00 0.000000000E+00 0.000000000E+00
</Points>
<CellData Scalars="Temperature, U, V">
<DataArray type="Float32" Name="Temp, K"/>
0.000000000E+00 0.000000000E+00 0.000000000E+00 0.000000000E+00 0.000000000E+00 0.000000000E+00 0.000000000E+00 0.000000000E+00
0.000000000E+00 0.000000000E+00 0.000000000E+00 0.000000000E+00 0.000000000E+00 0.000000000E+00 0.000000000E+00 0.000000000E+00
0.000000000E+00 0.000000000E+00 0.000000000E+00 0.000000000E+00 0.000000000E+00 0.000000000E+00 0.000000000E+00 0.000000000E+00
0.000000000E+00 0.000000000E+00 0.000000000E+00 0.000000000E+00 0.000000000E+00 0.000000000E+00 0.000000000E+00 0.000000000E+00
0.000000000E+00 0.000000000E+00 0.000000000E+00 0.000000000E+00 0.000000000E+00 0.000000000E+00 0.000000000E+00 0.000000000E+00
0.000000000E+00 0.000000000E+00 0.000000000E+00 0.000000000E+00 0.000000000E+00 0.000000000E+00 0.000000000E+00 0.000000000E+00
0.000000000E+00 0.000000000E+00 0.000000000E+00 0.000000000E+00 0.000000000E+00 0.000000000E+00 0.000000000E+00 0.000000000E+00
0.000000000E+00 0.000000000E+00 0.000000000E+00 0.000000000E+00 0.000000000E+00 0.000000000E+00 0.000000000E+00 0.000000000E+00
<DataArray type="Float32" Name="Vitesse u, m/s"/>
0.119044888E-02 0.198408053E-02 0.277771102E-02 0.357133988E-02 0.436496641E-02 0.515859015E-02 0.595221063E-02 0.317451009E-02
0.119044771E-02 0.198407890E-02 0.277770846E-02 0.357133639E-02 0.436496222E-02 0.515858550E-02 0.595220504E-02 0.317450706E-02
0.119044585E-02 0.198407564E-02 0.277770404E-02 0.357133104E-02 0.436495524E-02 0.515857711E-02 0.595219526E-02 0.317450194E-02
0.119044329E-02 0.198407122E-02 0.277769798E-02 0.357132312E-02 0.436494593E-02 0.515856594E-02 0.595218223E-02 0.317449495E-02
0.119043980E-02 0.198406563E-02 0.277769007E-02 0.357131287E-02 0.436493335E-02 0.515855104E-02 0.595216546E-02 0.317448587E-02
0.119043572E-02 0.198405888E-02 0.277768052E-02 0.357130030E-02 0.436491799E-02 0.515853334E-02 0.595214497E-02 0.317447493E-02
0.119043083E-02 0.198405050E-02 0.277766911E-02 0.357128587E-02 0.436490029E-02 0.515851192E-02 0.595212076E-02 0.317446189E-02
0.119042525E-02 0.198404118E-02 0.277765607E-02 0.357126910E-02 0.436487980E-02 0.515848771E-02 0.595209282E-02 0.317444699E-02
<DataArray type="Float32" Name="Vitesse v, m/s"/>
-.119044888E-02 -.119044771E-02 -.119044585E-02 -.119044329E-02 -.119043980E-02 -.119043572E-02 -.119043083E-02 -.119042525E-02
-.198408053E-02 -.198407890E-02 -.198407564E-02 -.198407122E-02 -.198406563E-02 -.198405888E-02 -.198405050E-02 -.198404118E-02
-.277771102E-02 -.277770846E-02 -.277770404E-02 -.277769798E-02 -.277769007E-02 -.277768052E-02 -.277766911E-02 -.277765607E-02
-.357133988E-02 -.357133639E-02 -.357133104E-02 -.357132312E-02 -.357131287E-02 -.357130030E-02 -.357128587E-02 -.357126910E-02
-.436496641E-02 -.436496222E-02 -.436495524E-02 -.436494593E-02 -.436493335E-02 -.436491799E-02 -.436490029E-02 -.436487980E-02
-.515859015E-02 -.515858550E-02 -.515857711E-02 -.515856594E-02 -.515855104E-02 -.515853334E-02 -.515851192E-02 -.515848771E-02
-.595221063E-02 -.595220504E-02 -.595219526E-02 -.595218223E-02 -.595216546E-02 -.595214497E-02 -.595212076E-02 -.595209282E-02
-.317451009E-02 -.317450706E-02 -.317450194E-02 -.317449495E-02 -.317448587E-02 -.317447493E-02 -.317446189E-02 -.317444699E-02
</CellData>
</Piece>
</StructuredGrid>
</VTKFile>
